  MPI-parallelism will be employed.
------------------------------------------------------------
          Invoking FHI-aims ...
          Version 052014
          Git rev. (modified): 096c982 Merge branch master of fhiaims:/pub/localo[...]
          Compiled on 2016/12/16 at 15:22:01 on host login02.hpc.iitd.ac.in.

          When using FHI-aims, please cite the following reference:

          Volker Blum, Ralf Gehrke, Felix Hanke, Paula Havu,
          Ville Havu, Xinguo Ren, Karsten Reuter, and Matthias Scheffler,
          'Ab Initio Molecular Simulations with Numeric Atom-Centered Orbitals: FHI-aims',
          Computer Physics Communications 180, 2175-2196 (2009)

          For any questions about FHI-aims, please visit the aimsclub website
          with its forums and wiki. Contributions to both the forums and the
          wiki are warmly encouraged - they are for you, and everyone is welcome there.

------------------------------------------------------------

  Date     :  20220124, Time     :  175039.578
  Time zero on CPU 1             :   0.128150000000000E-01  s.
  Internal wall clock time zero  :           412278639.578  s.

  Using        8 parallel tasks.
  Task        0 on host khas028 reporting.
  Task        1 on host khas028 reporting.
  Task        2 on host khas028 reporting.
  Task        3 on host khas028 reporting.
  Task        4 on host khas028 reporting.
  Task        5 on host khas028 reporting.
  Task        6 on host khas028 reporting.
  Task        7 on host khas028 reporting.

  Performing system and environment tests:
  | Environment variable OMP_NUM_THREADS correctly set to 1.
  | Stacksize not measured: no C compiler
  | Checking for scalapack...
  | Testing pdtran()...
  | All pdtran() tests passed.

  Obtaining array dimensions for all initial allocations:
  
  -----------------------------------------------------------------------
  Parsing control.in (first pass over file, find array dimensions only).
  The contents of control.in will be repeated verbatim below
  unless switched off by setting 'verbatim_writeout .false.' .
  in the first line of control.in .
  -----------------------------------------------------------------------
  
    xc               pbe
    spin             collinear
    default_initial_moment hund
    relativistic     atomic_zora scalar 1e-9
    occupation_type  gaussian 0.001
    charge        0
    vdw_correction_hirshfeld
    KS_method        scalapack_fast
    mixer            pulay
    charge_mix_param  0.4
    spin_mix_param    0.6
    sc_accuracy_rho  1E-4
    sc_accuracy_eev  1E-5
    sc_accuracy_etot 1E-5
    sc_iter_limit    100
    empty_states     5
  ################################
  # For relaxation:
    relax_geometry trm 1E-3
    sc_accuracy_forces 1E-4
  ################################
  ################################################################################
  #
  #  FHI-aims code project
  # Volker Blum, Fritz Haber Institute Berlin, 2009
  #
  #  Suggested "tight" defaults for Co atom (to be pasted into control.in file)
  #
  #  Revised June 14, 2011.
  #     p and d functions of tier 2 now enabled by default, as the atom may change
  #     its occupation. Similar to Ni.
  #
  ################################################################################
    species        Co
  #     global species definitions
      nucleus      27
      mass         58.933195
  #
      l_hartree    6
  #
      cut_pot      4.0  2.0  1.0
      basis_dep_cutoff    1e-4
  #
      radial_base        52 7.0
      radial_multiplier  2
      angular_grids       specified
        division   0.3189   50
        division   0.6267  110
        division   0.9473  194
        division   1.1520  302
        division   1.3966  434
  #      division   1.6293  590
  #      division   1.8317  770
  #      division   2.0231  974
  #      division   2.4367 1202
  #      outer_grid   974
        outer_grid  434
  ################################################################################
  #
  #  Definition of "minimal" basis
  #
  ################################################################################
  #     valence basis states
      valence      4  s   2.
      valence      3  p   6.
      valence      3  d   7.
  #     ion occupancy
      ion_occ      4  s   1.
      ion_occ      3  p   6.
      ion_occ      3  d   6.
  ################################################################################
  #
  #  Suggested additional basis functions. For production calculations,
  #  uncomment them one after another (the most important basis functions are
  #  listed first).
  #
  #  Constructed for dimers: 1.8, 2.0, 2.5, 3.5 Ang
  #
  ################################################################################
  #  "First tier" (improvements: -167.79 meV ...  -15.31 meV)
       hydro 3 p 5.8
       hydro 4 f 8.2
       hydro 3 d 5.4
       hydro 5 g 12
       ionic 4 s auto
  #  "Second tier" (improvements: -8.83 meV ... -0.89 meV)
       ionic 4 p auto
  #     hydro 6 h 16.4
       hydro 4 d 5.6
  #     hydro 4 f 17.2
  #     hydro 1 s 0.75
  #  "Third tier" (improvements: -1.03 meV ... -0.06 meV)
  #     hydro 4 d 7.8
  #     hydro 2 p 5.8
  #     hydro 4 f 8
  #     hydro 5 g 11.6
  #     hydro 4 s 4.3
  #     hydro 6 h 14.4
  #  "Fourth tier" (minor improvements)
  #     hydro 5 f 16
  #     hydro 5 d 8
  #     hydro 4 p 10
  #     hydro 5 s 7.4
  
  ################################################################################
  #
  #  FHI-aims code project
  # Volker Blum, Fritz Haber Institute Berlin, 2009
  #
  #  Suggested "tight" defaults for Zr atom (to be pasted into control.in file)
  #
  ################################################################################
    species          Zr
  #     global species definitions
      nucleus        40
      mass           91.224
  #
      l_hartree      6
  #
      cut_pot        4.0  2.0  1.0
      basis_dep_cutoff    1e-4
  #
      radial_base    58  7.0
      radial_multiplier  2
      angular_grids specified
        division   0.3653   50
        division   0.8035  110
        division   1.2273  194
        division   1.4586  302
        division   1.6764  434
  #      division   1.9671  590
  #      division   2.1961  770
  #      division   2.3240  974
  #      division   3.4772 1202
  #      outer_grid  974
        outer_grid  434
  ################################################################################
  #
  #  Definition of "minimal" basis
  #
  ################################################################################
  #     valence basis states
      valence      5  s   2.
      valence      4  p   6.
      valence      4  d   2.
  #     ion occupancy
      ion_occ      5  s   1.
      ion_occ      4  p   6.
      ion_occ      4  d   1.
  ################################################################################
  #
  #  Suggested additional basis functions. For production calculations,
  #  uncomment them one after another (the most important basis functions are
  #  listed first).
  #
  #  Constructed for dimers: 1.9, 2.25, 3.00, 4.00 Ang
  #
  ################################################################################
  #  "First tier" - improvements: -605.96 meV to -18.06 meV
       hydro 4 f 7.2
       ionic 4 d auto
       ionic 5 p auto
       hydro 5 g 10.4
       ionic 5 s auto
  #  "Second tier" - improvements: -32.47 meV to -1.41 meV
  #     hydro 4 f 10.4
  #     hydro 6 h 14.8
  #     hydro 4 d 6.2
  #     hydro 4 p 4.4
  #     hydro 4 f 20
  #     hydro 5 s 6
  #  "Third tier" - improvements: -1.99 meV and lower.
  #     hydro 4 f 5.8
  #     hydro 5 g 10.8
  #     hydro 2 p 1
  #     hydro 3 d 8
  #     hydro 6 h 14.4
  #     hydro 1 s 0.9
  #  Further functions (approx -0.40 meV and below possible)
  
  -----------------------------------------------------------------------
  Completed first pass over input file control.in .
  -----------------------------------------------------------------------
  
  
  -----------------------------------------------------------------------
  Parsing geometry.in (first pass over file, find array dimensions only).
  The contents of geometry.in will be repeated verbatim below
  unless switched off by setting 'verbatim_writeout .false.' .
  in the first line of geometry.in .
  -----------------------------------------------------------------------
  
  atom	0	0	0	Co
  atom	0	2	0	Co
  atom	2	0	0	Zr
  atom	2	2	0	Co
  
  -----------------------------------------------------------------------
  Completed first pass over input file geometry.in .
  -----------------------------------------------------------------------
  

  Basic array size parameters:
  | Number of species                 :        2
  | Number of atoms                   :        4
  | Max. basis fn. angular momentum   :        4
  | Max. atomic/ionic basis occupied n:        5
  | Max. number of basis fn. types    :        3
  | Max. radial fns per species/type  :       10
  | Max. logarithmic grid size        :     1432
  | Max. radial integration grid size :      117
  | Max. angular integration grid size:      434
  | Max. angular grid division number :        8
  | Radial grid for Hartree potential :     1432
  | Number of spin channels           :        2

------------------------------------------------------------
          Reading file control.in.
------------------------------------------------------------
  XC: Using PBE gradient-corrected functionals.
  Spin treatment: Spin density functional theory - collinear spins.
  Initial spin moment per atom set according to Hund's rules.
  Scalar relativistic treatment of kinetic energy: on-site free-atom approximation to ZORA.
  Occupation type: Gaussian broadening, width =   0.100000E-02 eV.
  Charge =   0.000000E+00: Neutral system requested explicitly.
  Using non-empirical van der Waals correction (Hirshfeld partitioning):
  Kohn-Sham eigenvalues and eigenfunctions calculated by the ELPA eigensolver library.
  Using pulay charge density mixing.
  Charge density mixing - mixing parameter:     0.4000
  Spin density mixing - mixing parameter:     0.6000
  Convergence accuracy of self-consistent charge density: 0.1000E-03
  Convergence accuracy of sum of eigenvalues: 0.1000E-04
  Convergence accuracy of total energy: 0.1000E-04
  Maximum number of s.-c. iterations  :   100
  Number of empty states per atom:        5
  Geometry relaxation: Modified BFGS - TRM (trust radius method, i.e., trusted quadratic extrapolation).
  Convergence accuracy for geometry relaxation: Maximum force <   0.100000E-02 eV/A.
  Convergence accuracy of forces: 0.1000E-03
 
  Reading configuration options for species Co                  .
  | Found nuclear charge :  27.0000
  | Found atomic mass :    58.9331950000000      amu
  | Found l_max for Hartree potential  :   6
  | Found cutoff potl. onset [A], width [A], scale factor :    4.00000    2.00000    1.00000
  | Threshold for basis-dependent cutoff potential is   0.100000E-03
  | Found data for basic radial integration grid :    52 points, outermost radius =    7.000 A
  | Found multiplier for basic radial grid :   2
  | Found angular grid specification: user-specified.
  | Specified grid contains     6 separate shells.
  | Check grid settings after all constraints further below.
  | Found free-atom valence shell :  4 s   2.000
  | Found free-atom valence shell :  3 p   6.000
  | Found free-atom valence shell :  3 d   7.000
  | Found free-ion valence shell :  4 s   1.000
  | Found free-ion valence shell :  3 p   6.000
  | Found free-ion valence shell :  3 d   6.000
  | Found hydrogenic basis function :  3 p   5.800
  | Found hydrogenic basis function :  4 f   8.200
  | Found hydrogenic basis function :  3 d   5.400
  | Found hydrogenic basis function :  5 g  12.000
  | Found ionic basis function :  4 s , default cutoff radius.
  | Found ionic basis function :  4 p , default cutoff radius.
  | Found hydrogenic basis function :  4 d   5.600
  Species Co                  : Missing cutoff potential type.
  Defaulting to exp(1/x)/(1-x)^2 type cutoff potential.
  Species Co: No 'logarithmic' tag. Using default grid for free atom:
  | Default logarithmic grid data [bohr] : 0.1000E-03 0.1000E+03 0.1012E+01
  | Will include ionic basis functions of  2.0-fold positive Co                   ion.
  Species Co: On-site basis accuracy parameter (for Gram-Schmidt orthonormalisation) not specified.
  Using default value basis_acc =  0.1000000E-03.
  Species Co                  : Using default innermost maximum threshold i_radial=  2 for radial functions.
  Species Co                  : Default cutoff onset for free atom density etc. : 0.40000000E+01 AA.
  Species Co                  : Basic radial grid will be enhanced according to radial_multiplier =   2, to contain   105 grid points.
 
  Reading configuration options for species Zr                  .
  | Found nuclear charge :  40.0000
  | Found atomic mass :    91.2240000000000      amu
  | Found l_max for Hartree potential  :   6
  | Found cutoff potl. onset [A], width [A], scale factor :    4.00000    2.00000    1.00000
  | Threshold for basis-dependent cutoff potential is   0.100000E-03
  | Found data for basic radial integration grid :    58 points, outermost radius =    7.000 A
  | Found multiplier for basic radial grid :   2
  | Found angular grid specification: user-specified.
  | Specified grid contains     6 separate shells.
  | Check grid settings after all constraints further below.
  | Found free-atom valence shell :  5 s   2.000
  | Found free-atom valence shell :  4 p   6.000
  | Found free-atom valence shell :  4 d   2.000
  | Found free-ion valence shell :  5 s   1.000
  | Found free-ion valence shell :  4 p   6.000
  | Found free-ion valence shell :  4 d   1.000
  | Found hydrogenic basis function :  4 f   7.200
  | Found ionic basis function :  4 d , default cutoff radius.
  | Found ionic basis function :  5 p , default cutoff radius.
  | Found hydrogenic basis function :  5 g  10.400
  | Found ionic basis function :  5 s , default cutoff radius.
  Species Zr                  : Missing cutoff potential type.
  Defaulting to exp(1/x)/(1-x)^2 type cutoff potential.
  Species Zr: No 'logarithmic' tag. Using default grid for free atom:
  | Default logarithmic grid data [bohr] : 0.1000E-03 0.1000E+03 0.1012E+01
  | Will include ionic basis functions of  2.0-fold positive Zr                   ion.
  Species Zr: On-site basis accuracy parameter (for Gram-Schmidt orthonormalisation) not specified.
  Using default value basis_acc =  0.1000000E-03.
  Species Zr                  : Using default innermost maximum threshold i_radial=  2 for radial functions.
  Species Zr                  : Default cutoff onset for free atom density etc. : 0.40000000E+01 AA.
  Species Zr                  : Basic radial grid will be enhanced according to radial_multiplier =   2, to contain   117 grid points.
 
  Finished reading input file 'control.in'. Consistency checks are next.
 
  Target number of points in a grid batch is not set. Defaulting to  100
  Method for grid partitioning is not set. Defaulting to parallel hash+maxmin partitioning.
  Batch size limit is not set. Defaulting to    200
  By default, will store active basis functions for each batch.
  If in need of memory, prune_basis_once .false. can be used to disable this option.
  communication_type for Hartree potential was not specified.
  Defaulting to calc_hartree .
  Pulay mixer: Number of relevant iterations not set.
  Defaulting to    8 iterations.
  Pulay mixer: Number of initial linear mixing iterations not set.
  Defaulting to    0 iterations.
  Work space size for distributed Hartree potential not set.
  Defaulting to   0.200000E+03 MB.
  Algorithm-dependent basis array size parameters:
  | n_max_pulay                         :        8
  No maximum number of relaxation steps, defaulting to     1000
  Default initial Hessian is Lindh matrix (thres = 15.00) plus  0.200000E+01 eV/A^2 times unity.
  No maximum energy tolerance for TRM/BFGS moves, defaulting to   0.200000E-03
  No harmonic length scale. Defaulting to   0.250000E-01 A.
  No trust radius initializer. Defaulting to   0.200000E+00 A.
  Handling of forces: Unphysical translation and rotation will be removed from forces.
  No accuracy limit for integral partition fn. given. Defaulting to 0.1000E-14.
  No threshold value for u(r) in integrations given. Defaulting to 0.1000E-05.
  No accuracy for occupation numbers given. Defaulting to 0.1000E-07.
  No threshold value for occupation numbers given. Defaulting to 0.0000E+00.
  No accuracy for fermi level given. Defaulting to 0.1000E-19.
  Maximum # of iterations to find E_F not set. Defaulting to  200.
  Will not use alltoall communication since running on < 1024 CPUs.
  Threshold for basis singularities not set.
  Default threshold for basis singularities: 0.1000E-04
  partition_type (choice of integration weights) for integrals was not specified.
  | Using a version of the partition function of Stratmann and coworkers ('stratmann_smoother').
  | At each grid point, the set of atoms used to build the partition table is smoothly restricted to
  | only those atoms whose free-atom density would be non-zero at that grid point.
  Partitioning for Hartree potential was not defined. Using partition_type for integrals.
  | Adjusted default value of keyword multip_moments_threshold to:       0.10000000E-11
  | This value may affect high angular momentum components of the Hartree potential in periodic systems.
  No q(lm)/r^(l+1) cutoff set for long-range Hartree potential.
  | Using default value of  0.100000E-09 .
  | Verify using the multipole_threshold keyword.
  Defaulting to new monopole extrapolation.
  Density update method: automatic selection selected.
  Geometry relaxation: A file "geometry.in.next_step" is written out by default after each step.
  | This file contains the geometry of the current relaxation step as well as
  | the current Hessian matrix needed to restart the relaxation algorithm.
  | If you do not want part or all of this information, use the keywords
  | "write_restart_geometry" or "hessian_to_restart_geometry" to switch the output off.
------------------------------------------------------------


------------------------------------------------------------
          Reading geometry description geometry.in.
------------------------------------------------------------
  Input structure read successfully.
  The structure contains        4 atoms,  and a total of        121.000 electrons.

  Input geometry:
  | No unit cell requested.
  | Atomic structure:
  |       Atom                x [A]            y [A]            z [A]
  |    1: Species Co             0.000000         0.000000         0.000000
  |    2: Species Co             0.000000         2.000000         0.000000
  |    3: Species Zr             2.000000         0.000000         0.000000
  |    4: Species Co             2.000000         2.000000         0.000000
  |

  | The smallest distance between any two atoms is         2.00000000 AA.
  |
  | The first atom of this pair is atom number                      1 .
  | The second atom of this pair is atom number                     2 .

  Initial moments and charges:
  |  Atom   Moment         Charge        Species
  |     1  (Hund's rule)   0.000000E+00   Co
  |     2  (Hund's rule)   0.000000E+00   Co
  |     3  (Hund's rule)   0.000000E+00   Zr
  |     4  (Hund's rule)   0.000000E+00   Co

  Structure-dependent array size parameters: 
  | Number of distinct atom types in initial rho :        2
  | Maximum number of distinct radial functions  :       29
  | Maximum number of basis functions            :      193
  | Number of Kohn-Sham states (occupied + empty):       71
------------------------------------------------------------

------------------------------------------------------------
          Preparing all fixed parts of the calculation.
------------------------------------------------------------
  Determining machine precision:
    2.225073858507201E-308
  Setting up grids for atomic and cluster calculations.

  Creating wave function, potential, and density for free atoms.

  Species: Co

  List of occupied orbitals and eigenvalues:
    n    l              occ      energy [Ha]    energy [eV]
    1    0           2.0000      -281.566092     -7661.8032
    2    0           2.0000       -33.078778      -900.1193
    3    0           2.0000        -3.761161      -102.3464
    4    0           2.0000        -0.199094        -5.4176
    2    1           6.0000       -28.325360      -770.7723
    3    1           6.0000        -2.409500       -65.5658
    3    2           7.0000        -0.299474        -8.1491


  Species: Zr

  List of occupied orbitals and eigenvalues:
    n    l              occ      energy [Ha]    energy [eV]
    1    0           2.0000      -668.722933    -18196.8768
    2    0           2.0000       -91.076987     -2478.3309
    3    0           2.0000       -14.873383      -404.7254
    4    0           2.0000        -1.994212       -54.2653
    5    0           2.0000        -0.156460        -4.2575
    2    1           6.0000       -81.194469     -2209.4139
    3    1           6.0000       -11.667913      -317.5001
    4    1           6.0000        -1.184217       -32.2242
    3    2          10.0000        -6.414313      -174.5423
    4    2           2.0000        -0.125045        -3.4027

  Spin-polarized or charged system:
  Charge density initialized according to selected moments and charges.

  Creating spin-polarized density from free atoms.

  Species: Co
  Charge:   0.000000
  applying Hund's rules ...

  List of occupied orbitals and eigenvalues:
    n    l      energy [Ha]    energy [eV]    occupation
  Spin-up
    1    0      -281.554206     -7661.4798     1.00000000
    2    0       -33.093603      -900.5227     1.00000000
    3    0        -3.810718      -103.6949     1.00000000
    4    0        -0.208358        -5.6697     1.00000000
    2    1       -28.333473      -770.9930     3.00000000
    3    1        -2.458199       -66.8910     3.00000000
    3    2        -0.343568        -9.3490     5.00000000
  Spin-down
    1    0      -281.554311     -7661.4826     1.00000000
    2    0       -33.037259      -898.9895     1.00000000
    3    0        -3.689015      -100.3832     1.00000000
    4    0        -0.188150        -5.1198     1.00000000
    2    1       -28.290937      -769.8356     3.00000000
    3    1        -2.339100       -63.6502     3.00000000
    3    2        -0.238133        -6.4799     2.00000000


  Species: Zr
  Charge:   0.000000
  applying Hund's rules ...

  List of occupied orbitals and eigenvalues:
    n    l      energy [Ha]    energy [eV]    occupation
  Spin-up
    1    0      -668.716650    -18196.7059     1.00000000
    2    0       -91.073405     -2478.2334     1.00000000
    3    0       -14.868787      -404.6003     1.00000000
    4    0        -2.005541       -54.5736     1.00000000
    5    0        -0.166084        -4.5194     1.00000000
    2    1       -81.190183     -2209.2973     3.00000000
    3    1       -11.663467      -317.3791     3.00000000
    4    1        -1.198548       -32.6141     3.00000000
    3    2        -6.410722      -174.4446     5.00000000
    4    2        -0.141834        -3.8595     2.00000000
  Spin-down
    1    0      -668.716897    -18196.7126     1.00000000
    2    0       -91.068181     -2478.0913     1.00000000
    3    0       -14.865979      -404.5239     1.00000000
    4    0        -1.970809       -53.6285     1.00000000
    5    0        -0.141744        -3.8570     1.00000000
    2    1       -81.186383     -2209.1939     3.00000000
    3    1       -11.660361      -317.2946     3.00000000
    4    1        -1.158045       -31.5120     3.00000000
    3    2        -6.405859      -174.3123     5.00000000
    4    2        -0.099325        -2.7028     0.00000000

  Creating fixed part of basis set: Ionic, confined, hydrogenic.
 
  Co                   ion:

  List of free ionic orbitals and eigenvalues:
    n    l      energy [Ha]    energy [eV]
    1    0      -282.564401     -7688.9686
    2    0       -34.086672      -927.5455
    3    0        -4.733406      -128.8025
    4    0        -0.850278       -23.1373
    2    1       -29.331608      -798.1537
    3    1        -3.374486       -91.8244
    3    2        -1.228934       -33.4410


  List of ionic basis orbitals and eigenvalues:
    n    l      energy [Ha]    energy [eV]    outer radius [A]
    4    0        -0.850268       -23.1370       5.017573
    4    1        -0.602640       -16.3987       5.399446

 
  Co                   hydrogenic:
 
  List of hydrogenic basis orbitals: 
    n    l      effective z      eigenvalue [eV]  inner max. [A]     outer max. [A]     outer radius [A]   
    3    1         5.800000       -50.8549           0.273460           1.088525           4.494802
    4    3         8.200000       -57.1778           1.036577           1.036577           4.550088
    3    2         5.400000       -44.0822           0.884263           0.884263           4.494802
    5    4        12.000000       -78.3687           1.101914           1.101914           4.440187
    4    2         5.600000       -26.6539           0.643489           2.005859           5.465859
 
 
  Zr                   ion:

  List of free ionic orbitals and eigenvalues:
    n    l      energy [Ha]    energy [eV]
    1    0      -669.421026    -18215.8729
    2    0       -91.769634     -2497.1788
    3    0       -15.560469      -423.4219
    4    0        -2.663352       -72.4735
    5    0        -0.640863       -17.4388
    2    1       -81.886574     -2228.2470
    3    1       -12.354892      -336.1937
    4    1        -1.844122       -50.1811
    3    2        -7.101714      -193.2475
    4    2        -0.726930       -19.7808


  List of ionic basis orbitals and eigenvalues:
    n    l      energy [Ha]    energy [eV]    outer radius [A]
    4    2        -0.726920       -19.7805       5.008334
    5    1        -0.469561       -12.7774       5.455794
    5    0        -0.640774       -17.4363       5.389503

 
  Zr                   hydrogenic:
 
  List of hydrogenic basis orbitals: 
    n    l      effective z      eigenvalue [eV]  inner max. [A]     outer max. [A]     outer radius [A]   
    4    3         7.200000       -44.0822           1.169212           1.169212           5.008334
    5    4        10.400000       -58.8635           1.273673           1.273673           4.887365
 

  Adding cutoff potential to free-atom effective potential.
  Creating atomic-like basis functions for current effective potential.

  Species Co                  :

  List of atomic basis orbitals and eigenvalues:
    n    l      energy [Ha]    energy [eV]    outer radius [A]
    1    0      -281.566092     -7661.8032       0.394613
    2    0       -33.078778      -900.1193       1.157136
    3    0        -3.761161      -102.3464       3.311155
    4    0        -0.199094        -5.4176       5.399446
    2    1       -28.325360      -770.7723       1.215127
    3    1        -2.409500       -65.5658       3.977573
    3    2        -0.299474        -8.1491       5.269030


  Species Zr                  :

  List of atomic basis orbitals and eigenvalues:
    n    l      energy [Ha]    energy [eV]    outer radius [A]
    1    0      -668.722933    -18196.8768       0.259930
    2    0       -91.076987     -2478.3309       0.725827
    3    0       -14.873383      -404.7254       1.771771
    4    0        -1.994212       -54.2653       4.541709
    5    0        -0.156460        -4.2575       5.455794
    2    1       -81.194469     -2209.4139       0.743792
    3    1       -11.667913      -317.5001       1.930067
    4    1        -1.184217       -32.2242       5.008334
    3    2        -6.414313      -174.5423       2.434714
    4    2        -0.125045        -3.4027       5.389503

  Assembling full basis from fixed parts.
  | Species Co :   atomic orbital   1 s accepted.
  | Species Co :   atomic orbital   2 s accepted.
  | Species Co :   atomic orbital   3 s accepted.
  | Species Co :    ionic orbital   4 s accepted.
  | Species Co :   atomic orbital   4 s accepted.
  | Species Co :   atomic orbital   2 p accepted.
  | Species Co :   atomic orbital   3 p accepted.
  | Species Co :    hydro orbital   3 p accepted.
  | Species Co :    ionic orbital   4 p accepted.
  | Species Co :    hydro orbital   3 d accepted.
  | Species Co :   atomic orbital   3 d accepted.
  | Species Co :    hydro orbital   4 d accepted.
  | Species Co :    hydro orbital   4 f accepted.
  | Species Co :    hydro orbital   5 g accepted.
  | Species Zr :   atomic orbital   1 s accepted.
  | Species Zr :   atomic orbital   2 s accepted.
  | Species Zr :   atomic orbital   3 s accepted.
  | Species Zr :   atomic orbital   4 s accepted.
  | Species Zr :    ionic orbital   5 s accepted.
  | Species Zr :   atomic orbital   5 s accepted.
  | Species Zr :   atomic orbital   2 p accepted.
  | Species Zr :   atomic orbital   3 p accepted.
  | Species Zr :   atomic orbital   4 p accepted.
  | Species Zr :    ionic orbital   5 p accepted.
  | Species Zr :   atomic orbital   3 d accepted.
  | Species Zr :    ionic orbital   4 d accepted.
  | Species Zr :   atomic orbital   4 d accepted.
  | Species Zr :    hydro orbital   4 f accepted.
  | Species Zr :    hydro orbital   5 g accepted.
 
  Basis size parameters after reduction:
  | Total number of radial functions:       29
  | Total number of basis functions :      193
 
  Testing on-site integration grid accuracy.
  |  Species  Function  <phi|h_atom|phi> (log., in eV)  <phi|h_atom|phi> (rad., in eV)
           1        1              -7661.8031969867              -7661.8029260849
           1        2               -900.1193394436               -900.1193358362
           1        3               -102.3464062200               -102.3464054597
           1        4                 -4.5136676415                 -4.5136684488
           1        5                  5.2956911928                  5.2959272761
           1        6               -770.7722641523               -770.7722638539
           1        7                -65.5658195253                -65.5658190573
           1        8                  4.1689597085                  4.1689599828
           1        9                 11.7969993559                 11.7970095039
           1       10                  6.0390118236                  6.0390118634
           1       11                 12.9242487525                 12.9242490163
           1       12                 18.9576570498                 18.9576800677
           1       13                 32.4985635122                 32.4985635847
           1       14                 58.0457734223                 58.0457733072
           2       15             -18196.8768435665             -18196.8755705220
           2       16              -2478.3309144498              -2478.3308916069
           2       17               -404.7253557491               -404.7253534742
           2       18                -54.2652640714                -54.2652635286
           2       19                 -3.7119764275                 -3.7119846577
           2       20                  4.5875772639                  4.5868905659
           2       21              -2209.4139097225              -2209.4139071812
           2       22               -317.5000788444               -317.5000777556
           2       23                -32.2241784576                -32.2241781542
           2       24                 -0.3319152745                 -0.3319660629
           2       25               -174.5423275335               -174.5423272575
           2       26                 -3.0504029429                 -3.0504025329
           2       27                  4.9970437712                  4.9966978803
           2       28                 16.8632595236                 16.8632598612
           2       29                 37.0867992037                 37.0867988501

  Preparing densities etc. for the partition functions (integrals / Hartree potential).

  Preparations completed.
  max(cpu_time)          :      1.025 s.
  Wall clock time (cpu1) :      1.032 s.
------------------------------------------------------------

------------------------------------------------------------
          Begin self-consistency loop: Initialization.

          Date     :  20220124, Time     :  175040.670
------------------------------------------------------------

  Initializing index lists of integration centers etc. from given atomic structure:
  | Number of centers in hartree potential         :         4
  | Number of centers in hartree multipole         :         4
  | Number of centers in electron density summation:         4
  | Number of centers in basis integrals           :         4
  | Number of centers in integrals                 :         4
  Initializing relaxation algorithms.
  Using modified Scalapack Eigenvalue solver (ELPA)
  * Using 8 tasks for Scalapack Eigenvalue solver.
  Detailed listing of tasks and assigned k-points:
  (for non-periodic systems, the "k-point" denotes an internal label only)
   Task     0 k-point     1 on khas028
   Task     1 k-point     1 on khas028
   Task     2 k-point     1 on khas028
   Task     3 k-point     1 on khas028
   Task     4 k-point     1 on khas028
   Task     5 k-point     1 on khas028
   Task     6 k-point     1 on khas028
   Task     7 k-point     1 on khas028
  Tasks:     8 split into      4 X      2 BLACS grid
  Calculating blocksize based on n_basis =          193 max_nprow =            4 max_npcol =            2
  Scalapack blocksize set to:           16
  Required Scalapack workspace - INTEGER:            1 REAL:             1
  Partitioning the integration grid into batches with parallel hashing+maxmin method.
  | Number of batches:      997
  | Maximal batch size:     195
  | Minimal batch size:      78
  | Average batch size:      91.980
  | Standard deviation of batch sizes:      16.002

  Integration load balanced across     8 MPI tasks.
  Work distribution over tasks is as follows:
  Task     0 has      11505 integration points.
  Task     1 has      11451 integration points.
  Task     2 has      11437 integration points.
  Task     3 has      11502 integration points.
  Task     4 has      11433 integration points.
  Task     5 has      11420 integration points.
  Task     6 has      11503 integration points.
  Task     7 has      11453 integration points.
  Initializing partition tables, free-atom densities, potentials, etc. across the integration grid (initialize_grid_storage).
  | initialize_grid_storage: Actual outermost partition radius vs. multipole_radius_free
  | (-- VB: in principle, multipole_radius_free should be larger, hence this output)
  | Species        1: outer_partition_radius =              6.000000000000000 AA, multipole_radius_free =              6.027432917222699 AA.
  | Species        2: outer_partition_radius =              6.000000000000000 AA, multipole_radius_free =              6.016333975203386 AA.
  | Original list of interatomic distances with           4 x          4 entries is created.
  | Net number of integration points:    91704
  | of which are non-zero points    :    83740
  Obtaining max. number of non-zero basis functions in each batch (get_n_compute_maxes).
  | Maximal number of non-zero basis functions:      184 in task     0
  | Maximal number of non-zero basis functions:      182 in task     1
  | Maximal number of non-zero basis functions:      184 in task     2
  | Maximal number of non-zero basis functions:      184 in task     3
  | Maximal number of non-zero basis functions:      187 in task     4
  | Maximal number of non-zero basis functions:      182 in task     5
  | Maximal number of non-zero basis functions:      182 in task     6
  | Maximal number of non-zero basis functions:      182 in task     7
  Selecting the method for density update.
  Loop over occupied states selected for charge density update.
  Integrating Hamiltonian matrix: batch-based integration.
  Time summed over all CPUs for integration: real work        1.031 s, elapsed        1.056 s
  Integrating overlap matrix.
  Time summed over all CPUs for integration: real work        0.324 s, elapsed        0.333 s
  Deallocating overlap matrix.

  Updating Kohn-Sham eigenvalues, eigenvectors, occupation numbers, and Fermi level.
  Solving generalized eigenproblem
  Solving real symmetric generalised eigenvalue problem by standard ScaLAPACK.
  Transforming overlap matrix with ScaLAPACK and checking for singularities.
  : Overlap matrix is nonsingular, using Cholesky decomposition
  | Lowest eigenvalue:  0.764071E-03
  Factoring overlap matrix with Cholesky decomposition
  Using Cholesky factor for transformation
  Using 1-stage real ELPA solver
  Solving real symmetric generalised eigenvalue problem by standard ScaLAPACK.
  Using Cholesky factor for transformation
  Using 1-stage real ELPA solver
  Determining occupation numbers for Kohn-Sham eigenstates.
  | Chemical potential (Fermi level) in eV                 : -.75742881E+01
  | Error in electron count due to remaining E_F inaccuracy: -.57553962E-11
  | Maximum occupation number of highest empty state:  0.00E+00

  Writing Kohn-Sham eigenvalues.

  Spin-up eigenvalues:

  State    Occupation    Eigenvalue [Ha]    Eigenvalue [eV]
      1       1.00000        -668.760697       -18197.90447
      2       1.00000        -281.638324        -7663.76873
      3       1.00000        -281.638324        -7663.76873
      4       1.00000        -281.607936        -7662.94183
      5       1.00000         -91.118158        -2479.45124
      6       1.00000         -81.234971        -2210.51603
      7       1.00000         -81.234951        -2210.51547
      8       1.00000         -81.234687        -2210.50831
      9       1.00000         -33.180337         -902.88291
     10       1.00000         -33.180337         -902.88291
     11       1.00000         -33.149590         -902.04624
     12       1.00000         -28.420521         -773.36173
     13       1.00000         -28.420521         -773.36173
     14       1.00000         -28.419759         -773.34099
     15       1.00000         -28.419759         -773.34098
     16       1.00000         -28.419058         -773.32193
     17       1.00000         -28.419058         -773.32192
     18       1.00000         -28.389457         -772.51643
     19       1.00000         -28.389293         -772.51197
     20       1.00000         -28.388617         -772.49357
     21       1.00000         -14.916018         -405.88551
     22       1.00000         -11.711841         -318.69540
     23       1.00000         -11.711647         -318.69014
     24       1.00000         -11.708836         -318.61363
     25       1.00000          -6.459625         -175.77535
     26       1.00000          -6.459338         -175.76753
     27       1.00000          -6.457389         -175.71449
     28       1.00000          -6.457237         -175.71036
     29       1.00000          -6.456743         -175.69692
     30       1.00000          -3.906315         -106.29623
     31       1.00000          -3.905928         -106.28570
     32       1.00000          -3.871453         -105.34758
     33       1.00000          -2.566796          -69.84608
     34       1.00000          -2.565055          -69.79870
     35       1.00000          -2.559008          -69.63414
     36       1.00000          -2.558328          -69.61565
     37       1.00000          -2.544069          -69.22765
     38       1.00000          -2.543851          -69.22172
     39       1.00000          -2.520517          -68.58677
     40       1.00000          -2.518655          -68.53608
     41       1.00000          -2.512478          -68.36801
     42       1.00000          -2.075547          -56.47852
     43       1.00000          -1.289674          -35.09380
     44       1.00000          -1.289007          -35.07566
     45       1.00000          -1.255064          -34.15204
     46       1.00000          -0.541447          -14.73353
     47       1.00000          -0.503027          -13.68807
     48       1.00000          -0.482013          -13.11624
     49       1.00000          -0.480906          -13.08612
     50       1.00000          -0.463836          -12.62161
     51       1.00000          -0.455824          -12.40360
     52       1.00000          -0.451870          -12.29601
     53       1.00000          -0.450985          -12.27191
     54       1.00000          -0.450981          -12.27182
     55       1.00000          -0.449592          -12.23401
     56       1.00000          -0.397559          -10.81813
     57       1.00000          -0.389173          -10.58995
     58       1.00000          -0.386883          -10.52762
     59       1.00000          -0.386135          -10.50728
     60       1.00000          -0.385919          -10.50139
     61       1.00000          -0.374951          -10.20295
     62       0.00000          -0.261889           -7.12636
     63       0.00000          -0.242728           -6.60497
     64       0.00000          -0.222458           -6.05338
     65       0.00000          -0.206964           -5.63179
     66       0.00000          -0.187800           -5.11029
     67       0.00000          -0.171955           -4.67914
     68       0.00000          -0.161644           -4.39856
     69       0.00000          -0.120327           -3.27425
     70       0.00000          -0.098594           -2.68288
     71       0.00000          -0.083693           -2.27740

  Spin-down eigenvalues:

  State    Occupation    Eigenvalue [Ha]    Eigenvalue [eV]
      1       1.00000        -668.760939       -18197.91105
      2       1.00000        -281.638421        -7663.77137
      3       1.00000        -281.638421        -7663.77137
      4       1.00000        -281.608040        -7662.94466
      5       1.00000         -91.112945        -2479.30937
      6       1.00000         -81.231183        -2210.41295
      7       1.00000         -81.231163        -2210.41240
      8       1.00000         -81.230899        -2210.40524
      9       1.00000         -33.123983         -901.34944
     10       1.00000         -33.123983         -901.34944
     11       1.00000         -33.093299         -900.51450
     12       1.00000         -28.377984         -772.20423
     13       1.00000         -28.377984         -772.20423
     14       1.00000         -28.377226         -772.18361
     15       1.00000         -28.377225         -772.18359
     16       1.00000         -28.376527         -772.16457
     17       1.00000         -28.376526         -772.16457
     18       1.00000         -28.346974         -771.36042
     19       1.00000         -28.346812         -771.35599
     20       1.00000         -28.346136         -771.33761
     21       1.00000         -14.913225         -405.80949
     22       1.00000         -11.708749         -318.61127
     23       1.00000         -11.708555         -318.60600
     24       1.00000         -11.705748         -318.52962
     25       1.00000          -6.454780         -175.64349
     26       1.00000          -6.454494         -175.63573
     27       1.00000          -6.452549         -175.58278
     28       1.00000          -6.452397         -175.57865
     29       1.00000          -6.451903         -175.56523
     30       1.00000          -3.784696         -102.98682
     31       1.00000          -3.784263         -102.97504
     32       1.00000          -3.750202         -102.04820
     33       1.00000          -2.448180          -66.61837
     34       1.00000          -2.445961          -66.55798
     35       1.00000          -2.440629          -66.41288
     36       1.00000          -2.439871          -66.39227
     37       1.00000          -2.425043          -65.98878
     38       1.00000          -2.424789          -65.98187
     39       1.00000          -2.401561          -65.34981
     40       1.00000          -2.399712          -65.29948
     41       1.00000          -2.393823          -65.13923
     42       1.00000          -2.040841          -55.53412
     43       1.00000          -1.248789          -33.98127
     44       1.00000          -1.248003          -33.95988
     45       1.00000          -1.215391          -33.07248
     46       1.00000          -0.460465          -12.52990
     47       1.00000          -0.401361          -10.92159
     48       1.00000          -0.390185          -10.61747
     49       1.00000          -0.389052          -10.58665
     50       1.00000          -0.365050           -9.93352
     51       1.00000          -0.354694           -9.65171
     52       1.00000          -0.349294           -9.50477
     53       1.00000          -0.348664           -9.48762
     54       1.00000          -0.348277           -9.47710
     55       1.00000          -0.343478           -9.34652
     56       1.00000          -0.319833           -8.70311
     57       1.00000          -0.293830           -7.99551
     58       1.00000          -0.292069           -7.94760
     59       1.00000          -0.278617           -7.58155
     60       1.00000          -0.278526           -7.57909
     61       0.00000          -0.278022           -7.56537
     62       0.00000          -0.210445           -5.72650
     63       0.00000          -0.197897           -5.38506
     64       0.00000          -0.175594           -4.77816
     65       0.00000          -0.156348           -4.25445
     66       0.00000          -0.141974           -3.86330
     67       0.00000          -0.134743           -3.66653
     68       0.00000          -0.119630           -3.25530
     69       0.00000          -0.092803           -2.52529
     70       0.00000          -0.077250           -2.10208
     71       0.00000          -0.062297           -1.69519

  Current spin moment of the entire structure :
  | N = N_up - N_down :    1.00
  | S                 :    0.50
  | J                 :    2.00

  Highest occupied state (VBM) at     -7.57908658 eV
  | Occupation number:      1.00000000
  | Spin channel:        2

  Lowest unoccupied state (CBM) at    -7.56537173 eV
  | Occupation number:      0.00000000
  | Spin channel:        2

  Overall HOMO-LUMO gap:      0.01371485 eV.
  Calculating total energy contributions from superposition of free atom densities.

  Total energy components:
  | Sum of eigenvalues            :       -4663.04009922 Ha     -126887.77707875 eV
  | XC energy correction          :        -293.78132963 Ha       -7994.19671953 eV
  | XC potential correction       :         381.94344350 Ha       10393.20989834 eV
  | Free-atom electrostatic energy:       -3252.75290547 Ha      -88511.90999429 eV
  | Hartree energy correction     :           0.00000000 Ha           0.00000000 eV
  | van der Waals energy corr.    :           0.00000000 Ha           0.00000000 eV
  | Entropy correction            :          -0.00000000 Ha          -0.00000000 eV
  | ---------------------------
  | Total energy                  :       -7827.63089082 Ha     -213000.67389422 eV
  | Total energy, T -> 0          :       -7827.63089082 Ha     -213000.67389422 eV  <-- do not rely on this value for anything but (periodic) metals
  | Electronic free energy        :       -7827.63089082 Ha     -213000.67389422 eV

  Derived energy quantities:
  | Kinetic energy                :        7985.38832531 Ha      217293.47210173 eV
  | Electrostatic energy          :      -15519.23788650 Ha     -422299.94927643 eV
  | Energy correction for multipole
  | error in Hartree potential    :           0.00000000 Ha           0.00000000 eV
  | Sum of eigenvalues per atom                           :      -31721.94426969 eV
  | Total energy (T->0) per atom                          :      -53250.16847356 eV  <-- do not rely on this value for anything but (periodic) metals
  | Electronic free energy per atom                       :      -53250.16847356 eV
  Initialize hartree_potential_storage
  Max. number of atoms included in rho_multipole:            4

  End scf initialization - timings             :  max(cpu_time)    wall_clock(cpu1)
  | Time for scf. initialization               :        0.279 s           0.280 s
  | Boundary condition initialization          :        0.000 s           0.000 s
  | Relaxation initialization                  :        0.000 s           0.001 s
  | Integration                                :        0.175 s           0.175 s
  | Solution of K.-S. eqns.                    :        0.018 s           0.018 s
  | Grid partitioning                          :        0.026 s           0.026 s
  | Preloading free-atom quantities on grid    :        0.020 s           0.020 s
  | Free-atom superposition energy             :        0.012 s           0.012 s
  | Total energy evaluation                    :        0.000 s           0.000 s
------------------------------------------------------------

------------------------------------------------------------
          Begin self-consistency iteration #    1

  Date     :  20220124, Time     :  175040.950
------------------------------------------------------------
  Evaluating new KS density.
  Integration grid: deviation in total charge (<rho> - N_e) =  -7.309009E-06
  | <rho_up-rho_dn> = N_up-N_dn =     -9.0000; <|rho_up-rho_dn|> =      9.4985
  Pulay mixing of updated and previous charge densities.

  Evaluating partitioned Hartree potential by multipole expansion.
  | Analytical far-field extrapolation by fixed multipoles:
  | Hartree multipole sum: apparent total charge =   0.162525E-05
  Summing up the Hartree potential.
  Time summed over all CPUs for potential: real work        0.250 s, elapsed        0.254 s
  | RMS charge density error from multipole expansion :   0.203140E-02

  Integrating Hamiltonian matrix: batch-based integration.
  Time summed over all CPUs for integration: real work        1.001 s, elapsed        1.031 s

  Updating Kohn-Sham eigenvalues, eigenvectors, occupation numbers, and Fermi level.
  Solving generalized eigenproblem
  Solving real symmetric generalised eigenvalue problem by standard ScaLAPACK.
  Using Cholesky factor for transformation
  Using 1-stage real ELPA solver
  Solving real symmetric generalised eigenvalue problem by standard ScaLAPACK.
  Using Cholesky factor for transformation
  Using 1-stage real ELPA solver
  Determining occupation numbers for Kohn-Sham eigenstates.
  | Chemical potential (Fermi level) in eV                 : 0.91560455E+00
  | Error in electron count due to remaining E_F inaccuracy: 0.00000000E+00
  | Maximum occupation number of highest empty state:  0.00E+00

  Writing Kohn-Sham eigenvalues.

  Spin-up eigenvalues:

  State    Occupation    Eigenvalue [Ha]    Eigenvalue [eV]
      1       1.00000        -668.822300       -18199.58078
      2       1.00000        -280.869524        -7642.84861
      3       1.00000        -280.866891        -7642.77696
      4       1.00000        -280.866891        -7642.77696
      5       1.00000         -91.174057        -2480.97233
      6       1.00000         -81.292324        -2212.07668
      7       1.00000         -81.291885        -2212.06475
      8       1.00000         -81.291682        -2212.05921
      9       1.00000         -32.416638         -882.10161
     10       1.00000         -32.414755         -882.05037
     11       1.00000         -32.414755         -882.05036
     12       1.00000         -27.660117         -752.67009
     13       1.00000         -27.655594         -752.54700
     14       1.00000         -27.655594         -752.54700
     15       1.00000         -27.654429         -752.51529
     16       1.00000         -27.651041         -752.42311
     17       1.00000         -27.651041         -752.42310
     18       1.00000         -27.650618         -752.41161
     19       1.00000         -27.650618         -752.41161
     20       1.00000         -27.649025         -752.36825
     21       1.00000         -14.960563         -407.09763
     22       1.00000         -11.755855         -319.89309
     23       1.00000         -11.755387         -319.88036
     24       1.00000         -11.753790         -319.83691
     25       1.00000          -6.503028         -176.95641
     26       1.00000          -6.503000         -176.95562
     27       1.00000          -6.501907         -176.92589
     28       1.00000          -6.501489         -176.91451
     29       1.00000          -6.501332         -176.91025
     30       1.00000          -3.312766          -90.14495
     31       1.00000          -3.312177          -90.12892
     32       1.00000          -3.284690          -89.38096
     33       1.00000          -2.088135          -56.82104
     34       1.00000          -1.994724          -54.27920
     35       1.00000          -1.984705          -54.00657
     36       1.00000          -1.981774          -53.92682
     37       1.00000          -1.976670          -53.78793
     38       1.00000          -1.968842          -53.57493
     39       1.00000          -1.968417          -53.56336
     40       1.00000          -1.950578          -53.07792
     41       1.00000          -1.945409          -52.93726
     42       1.00000          -1.932680          -52.59091
     43       1.00000          -1.271821          -34.60800
     44       1.00000          -1.267973          -34.50329
     45       1.00000          -1.261963          -34.33976
     46       1.00000          -0.246745           -6.71428
     47       1.00000          -0.224408           -6.10646
     48       1.00000          -0.221333           -6.02279
     49       1.00000          -0.220974           -6.01301
     50       1.00000          -0.216987           -5.90453
     51       1.00000          -0.205159           -5.58266
     52       1.00000          -0.118950           -3.23680
     53       1.00000          -0.117628           -3.20082
     54       1.00000          -0.081818           -2.22638
     55       1.00000          -0.033591           -0.91405
     56       1.00000          -0.006946           -0.18902
     57       1.00000           0.006877            0.18712
     58       1.00000           0.008782            0.23898
     59       1.00000           0.012314            0.33508
     60       1.00000           0.019368            0.52702
     61       1.00000           0.020599            0.56053
     62       1.00000           0.031984            0.87033
     63       0.60450           0.033641            0.91542
     64       0.39550           0.033655            0.91579
     65       0.00000           0.040136            1.09215
     66       0.00000           0.042301            1.15108
     67       0.00000           0.056011            1.52415
     68       0.00000           0.079805            2.17161
     69       0.00000           0.100862            2.74458
     70       0.00000           0.101068            2.75021
     71       0.00000           0.101751            2.76879

  Spin-down eigenvalues:

  State    Occupation    Eigenvalue [Ha]    Eigenvalue [eV]
      1       1.00000        -668.822529       -18199.58699
      2       1.00000        -280.869363        -7642.84423
      3       1.00000        -280.866858        -7642.77607
      4       1.00000        -280.866858        -7642.77607
      5       1.00000         -91.172615        -2480.93308
      6       1.00000         -81.291246        -2212.04734
      7       1.00000         -81.291027        -2212.04139
      8       1.00000         -81.290692        -2212.03227
      9       1.00000         -32.385541         -881.25541
     10       1.00000         -32.385541         -881.25541
     11       1.00000         -32.381488         -881.14512
     12       1.00000         -27.634142         -751.96326
     13       1.00000         -27.634142         -751.96326
     14       1.00000         -27.631075         -751.87981
     15       1.00000         -27.628419         -751.80753
     16       1.00000         -27.628419         -751.80753
     17       1.00000         -27.628299         -751.80426
     18       1.00000         -27.628299         -751.80426
     19       1.00000         -27.626625         -751.75870
     20       1.00000         -27.625898         -751.73893
     21       1.00000         -14.959944         -407.08079
     22       1.00000         -11.755106         -319.87270
     23       1.00000         -11.754714         -319.86204
     24       1.00000         -11.753141         -319.81924
     25       1.00000          -6.501766         -176.92205
     26       1.00000          -6.501748         -176.92157
     27       1.00000          -6.500696         -176.89294
     28       1.00000          -6.500432         -176.88577
     29       1.00000          -6.500102         -176.87679
     30       1.00000          -3.253156          -88.52287
     31       1.00000          -3.252655          -88.50925
     32       1.00000          -3.212272          -87.41037
     33       1.00000          -2.075395          -56.47437
     34       1.00000          -1.939232          -52.76919
     35       1.00000          -1.931801          -52.56697
     36       1.00000          -1.920228          -52.25207
     37       1.00000          -1.918225          -52.19757
     38       1.00000          -1.910614          -51.99045
     39       1.00000          -1.910250          -51.98054
     40       1.00000          -1.877476          -51.08872
     41       1.00000          -1.872051          -50.94109
     42       1.00000          -1.871884          -50.93656
     43       1.00000          -1.260519          -34.30046
     44       1.00000          -1.255034          -34.15120
     45       1.00000          -1.249963          -34.01322
     46       1.00000          -0.232773           -6.33407
     47       1.00000          -0.210901           -5.73892
     48       1.00000          -0.210355           -5.72404
     49       1.00000          -0.204847           -5.57418
     50       1.00000          -0.201928           -5.49473
     51       1.00000          -0.189331           -5.15196
     52       1.00000          -0.113337           -3.08406
     53       1.00000          -0.109824           -2.98847
     54       1.00000          -0.073921           -2.01150
     55       1.00000          -0.020725           -0.56395
     56       1.00000           0.019436            0.52889
     57       1.00000           0.022408            0.60974
     58       1.00000           0.029578            0.80485
     59       0.00000           0.037082            1.00905
     60       0.00000           0.047370            1.28901
     61       0.00000           0.049114            1.33646
     62       0.00000           0.056338            1.53304
     63       0.00000           0.061357            1.66960
     64       0.00000           0.062047            1.68838
     65       0.00000           0.067850            1.84630
     66       0.00000           0.070428            1.91643
     67       0.00000           0.081927            2.22934
     68       0.00000           0.125092            3.40393
     69       0.00000           0.131655            3.58251
     70       0.00000           0.133217            3.62501
     71       0.00000           0.137048            3.72927

  Current spin moment of the entire structure :
  | N = N_up - N_down :    5.00
  | S                 :    2.50
  | J                 :    6.00

  Highest occupied state (VBM) at      0.91541715 eV
  | Occupation number:      0.60450189
  | Spin channel:        1
 * WARNING: The VBM is higher than the internal energy zero!

  Lowest unoccupied state (CBM) at     0.91579195 eV
  | Occupation number:      0.39549811
  | Spin channel:        1

  Overall HOMO-LUMO gap:      0.00037479 eV.

  Total energy components:
  | Sum of eigenvalues            :       -4619.62442326 Ha     -125706.37642701 eV
  | XC energy correction          :        -295.36619282 Ha       -8037.32304104 eV
  | XC potential correction       :         384.02881103 Ha       10449.95563593 eV
  | Free-atom electrostatic energy:       -3252.75290547 Ha      -88511.90999429 eV
  | Hartree energy correction     :         -46.95835213 Ha       -1277.80177529 eV
  | van der Waals energy corr.    :           0.00000000 Ha           0.00000000 eV
  | Entropy correction            :          -0.00001001 Ha          -0.00027236 eV
  | ---------------------------
  | Total energy                  :       -7830.67306265 Ha     -213083.45560170 eV
  | Total energy, T -> 0          :       -7830.67307266 Ha     -213083.45587406 eV  <-- do not rely on this value for anything but (periodic) metals
  | Electronic free energy        :       -7830.67308267 Ha     -213083.45614642 eV

  Derived energy quantities:
  | Kinetic energy                :        7995.85696680 Ha      217578.33833053 eV
  | Electrostatic energy          :      -15531.16383664 Ha     -422624.47089118 eV
  | Energy correction for multipole
  | error in Hartree potential    :          -0.00114567 Ha          -0.03117527 eV
  | Sum of eigenvalues per atom                           :      -31426.59410675 eV
  | Total energy (T->0) per atom                          :      -53270.86396851 eV  <-- do not rely on this value for anything but (periodic) metals
  | Electronic free energy per atom                       :      -53270.86403660 eV

  Self-consistency convergence accuracy:
  | Change of charge/spin density : 0.9891E+00 0.1416E+01
  | Change of sum of eigenvalues  : 0.1181E+04 eV
  | Change of total energy        : -.8278E+02 eV

  End self-consistency iteration #     1       :  max(cpu_time)    wall_clock(cpu1)
  | Time for this iteration                    :        0.321 s           0.321 s
  | Charge density update                      :        0.140 s           0.140 s
  | Density mixing                             :        0.003 s           0.002 s
  | Hartree multipole update                   :        0.003 s           0.003 s
  | Hartree multipole summation                :        0.032 s           0.033 s
  | Integration                                :        0.130 s           0.129 s
  | Solution of K.-S. eqns.                    :        0.009 s           0.009 s
  | Total energy evaluation                    :        0.000 s           0.001 s
------------------------------------------------------------

------------------------------------------------------------
          Begin self-consistency iteration #    2

  Date     :  20220124, Time     :  175041.273
------------------------------------------------------------
  Evaluating new KS density.
  Integration grid: deviation in total charge (<rho> - N_e) =  -4.385396E-06
  | <rho_up-rho_dn> = N_up-N_dn =      5.0000; <|rho_up-rho_dn|> =      6.4603
  Pulay mixing of updated and previous charge densities.

  Evaluating partitioned Hartree potential by multipole expansion.
  | Analytical far-field extrapolation by fixed multipoles:
  | Hartree multipole sum: apparent total charge =   0.305757E-05
  Summing up the Hartree potential.
  Time summed over all CPUs for potential: real work        0.250 s, elapsed        0.253 s
  | RMS charge density error from multipole expansion :   0.190903E-02

  Integrating Hamiltonian matrix: batch-based integration.
  Time summed over all CPUs for integration: real work        1.005 s, elapsed        1.059 s

  Updating Kohn-Sham eigenvalues, eigenvectors, occupation numbers, and Fermi level.
  Solving generalized eigenproblem
  Solving real symmetric generalised eigenvalue problem by standard ScaLAPACK.
  Using Cholesky factor for transformation
  Using 1-stage real ELPA solver
  Solving real symmetric generalised eigenvalue problem by standard ScaLAPACK.
  Using Cholesky factor for transformation
  Using 1-stage real ELPA solver
  Determining occupation numbers for Kohn-Sham eigenstates.
  | Chemical potential (Fermi level) in eV                 : -.70372285E+01
  | Error in electron count due to remaining E_F inaccuracy: -.69985617E-09
  | Maximum occupation number of highest empty state:  0.00E+00

  Current spin moment of the entire structure :
  | N = N_up - N_down :    1.00
  | S                 :    0.50
  | J                 :    2.00

  Highest occupied state (VBM) at     -7.04063655 eV
  | Occupation number:      0.99999928
  | Spin channel:        2

  Lowest unoccupied state (CBM) at    -7.03382041 eV
  | Occupation number:      0.00000072
  | Spin channel:        2

  Overall HOMO-LUMO gap:      0.00681615 eV.

  Total energy components:
  | Sum of eigenvalues            :       -4651.51063149 Ha     -126574.04429926 eV
  | XC energy correction          :        -293.77416619 Ha       -7994.00179236 eV
  | XC potential correction       :         381.92642021 Ha       10392.74667096 eV
  | Free-atom electrostatic energy:       -3252.75290547 Ha      -88511.90999429 eV
  | Hartree energy correction     :         -11.90169380 Ha        -323.86156627 eV
  | van der Waals energy corr.    :           0.00000000 Ha           0.00000000 eV
  | Entropy correction            :          -0.00000000 Ha          -0.00000000 eV
  | ---------------------------
  | Total energy                  :       -7828.01297675 Ha     -213011.07098122 eV
  | Total energy, T -> 0          :       -7828.01297675 Ha     -213011.07098122 eV  <-- do not rely on this value for anything but (periodic) metals
  | Electronic free energy        :       -7828.01297675 Ha     -213011.07098122 eV

  Derived energy quantities:
  | Kinetic energy                :        7985.64985288 Ha      217300.58862898 eV
  | Electrostatic energy          :      -15519.88866343 Ha     -422317.65781784 eV
  | Energy correction for multipole
  | error in Hartree potential    :          -0.00087732 Ha          -0.02387298 eV
  | Sum of eigenvalues per atom                           :      -31643.51107482 eV
  | Total energy (T->0) per atom                          :      -53252.76774530 eV  <-- do not rely on this value for anything but (periodic) metals
  | Electronic free energy per atom                       :      -53252.76774531 eV

  Self-consistency convergence accuracy:
  | Change of charge/spin density : 0.3636E+01 0.4849E+00
  | Change of sum of eigenvalues  : -.8677E+03 eV
  | Change of total energy        : 0.7238E+02 eV

  End self-consistency iteration #     2       :  max(cpu_time)    wall_clock(cpu1)
  | Time for this iteration                    :        0.322 s           0.321 s
  | Charge density update                      :        0.140 s           0.140 s
  | Density mixing                             :        0.002 s           0.002 s
  | Hartree multipole update                   :        0.003 s           0.003 s
  | Hartree multipole summation                :        0.032 s           0.032 s
  | Integration                                :        0.134 s           0.134 s
  | Solution of K.-S. eqns.                    :        0.009 s           0.009 s
  | Total energy evaluation                    :        0.000 s           0.000 s
------------------------------------------------------------

------------------------------------------------------------
          Begin self-consistency iteration #    3

  Date     :  20220124, Time     :  175041.599
------------------------------------------------------------
  Evaluating new KS density.
  Integration grid: deviation in total charge (<rho> - N_e) =  -3.923002E-06
  | <rho_up-rho_dn> = N_up-N_dn =     -3.0000; <|rho_up-rho_dn|> =      4.1599
  Pulay mixing of updated and previous charge densities.

  Evaluating partitioned Hartree potential by multipole expansion.
  | Analytical far-field extrapolation by fixed multipoles:
  | Hartree multipole sum: apparent total charge =   0.452449E-05
  Summing up the Hartree potential.
  Time summed over all CPUs for potential: real work        0.250 s, elapsed        0.254 s
  | RMS charge density error from multipole expansion :   0.187291E-02

  Integrating Hamiltonian matrix: batch-based integration.
  Time summed over all CPUs for integration: real work        1.002 s, elapsed        1.030 s

  Updating Kohn-Sham eigenvalues, eigenvectors, occupation numbers, and Fermi level.
  Solving generalized eigenproblem
  Solving real symmetric generalised eigenvalue problem by standard ScaLAPACK.
  Using Cholesky factor for transformation
  Using 1-stage real ELPA solver
  Solving real symmetric generalised eigenvalue problem by standard ScaLAPACK.
  Using Cholesky factor for transformation
  Using 1-stage real ELPA solver
  Determining occupation numbers for Kohn-Sham eigenstates.
  | Chemical potential (Fermi level) in eV                 : -.44127705E+01
  | Error in electron count due to remaining E_F inaccuracy: 0.00000000E+00
  | Maximum occupation number of highest empty state:  0.00E+00

  Current spin moment of the entire structure :
  | N = N_up - N_down :    3.00
  | S                 :    1.50
  | J                 :    4.00

  Highest occupied state (VBM) at     -4.43867418 eV
  | Occupation number:      1.00000000
  | Spin channel:        2

  Lowest unoccupied state (CBM) at    -4.39974146 eV
  | Occupation number:      0.00000000
  | Spin channel:        1

  Overall HOMO-LUMO gap:      0.03893272 eV.

  Total energy components:
  | Sum of eigenvalues            :       -4647.49240642 Ha     -126464.70283196 eV
  | XC energy correction          :        -293.95706297 Ha       -7998.97866684 eV
  | XC potential correction       :         382.16611895 Ha       10399.26920569 eV
  | Free-atom electrostatic energy:       -3252.75290547 Ha      -88511.90999429 eV
  | Hartree energy correction     :         -15.73583944 Ha        -428.19397731 eV
  | van der Waals energy corr.    :           0.00000000 Ha           0.00000000 eV
  | Entropy correction            :          -0.00000000 Ha          -0.00000000 eV
  | ---------------------------
  | Total energy                  :       -7827.77209534 Ha     -213004.51626470 eV
  | Total energy, T -> 0          :       -7827.77209534 Ha     -213004.51626470 eV  <-- do not rely on this value for anything but (periodic) metals
  | Electronic free energy        :       -7827.77209534 Ha     -213004.51626470 eV

  Derived energy quantities:
  | Kinetic energy                :        7986.95613482 Ha      217336.13436918 eV
  | Electrostatic energy          :      -15520.77116719 Ha     -422341.67196704 eV
  | Energy correction for multipole
  | error in Hartree potential    :          -0.00083322 Ha          -0.02267309 eV
  | Sum of eigenvalues per atom                           :      -31616.17570799 eV
  | Total energy (T->0) per atom                          :      -53251.12906618 eV  <-- do not rely on this value for anything but (periodic) metals
  | Electronic free energy per atom                       :      -53251.12906618 eV

  Self-consistency convergence accuracy:
  | Change of charge/spin density : 0.1221E+01 0.6847E+00
  | Change of sum of eigenvalues  : 0.1093E+03 eV
  | Change of total energy        : 0.6555E+01 eV

  End self-consistency iteration #     3       :  max(cpu_time)    wall_clock(cpu1)
  | Time for this iteration                    :        0.321 s           0.320 s
  | Charge density update                      :        0.141 s           0.139 s
  | Density mixing                             :        0.004 s           0.004 s
  | Hartree multipole update                   :        0.003 s           0.002 s
  | Hartree multipole summation                :        0.032 s           0.033 s
  | Integration                                :        0.130 s           0.129 s
  | Solution of K.-S. eqns.                    :        0.009 s           0.010 s
  | Total energy evaluation                    :        0.000 s           0.000 s
------------------------------------------------------------

------------------------------------------------------------
          Begin self-consistency iteration #    4

  Date     :  20220124, Time     :  175041.921
------------------------------------------------------------
  Evaluating new KS density.
  Integration grid: deviation in total charge (<rho> - N_e) =  -2.332376E-06
  | <rho_up-rho_dn> = N_up-N_dn =      2.9028; <|rho_up-rho_dn|> =      5.9833
  Pulay mixing of updated and previous charge densities.

  Evaluating partitioned Hartree potential by multipole expansion.
  | Analytical far-field extrapolation by fixed multipoles:
  | Hartree multipole sum: apparent total charge =   0.514349E-05
  Summing up the Hartree potential.
  Time summed over all CPUs for potential: real work        0.252 s, elapsed        0.256 s
  | RMS charge density error from multipole expansion :   0.201873E-02

  Integrating Hamiltonian matrix: batch-based integration.
  Time summed over all CPUs for integration: real work        0.999 s, elapsed        1.027 s

  Updating Kohn-Sham eigenvalues, eigenvectors, occupation numbers, and Fermi level.
  Solving generalized eigenproblem
  Solving real symmetric generalised eigenvalue problem by standard ScaLAPACK.
  Using Cholesky factor for transformation
  Using 1-stage real ELPA solver
  Solving real symmetric generalised eigenvalue problem by standard ScaLAPACK.
  Using Cholesky factor for transformation
  Using 1-stage real ELPA solver
  Determining occupation numbers for Kohn-Sham eigenstates.
  | Chemical potential (Fermi level) in eV                 : -.47522399E+01
  | Error in electron count due to remaining E_F inaccuracy: 0.00000000E+00
  | Maximum occupation number of highest empty state:  0.00E+00

  Current spin moment of the entire structure :
  | N = N_up - N_down :    1.00
  | S                 :    0.50
  | J                 :    2.00

  Highest occupied state (VBM) at     -5.07263923 eV
  | Occupation number:      1.00000000
  | Spin channel:        2

  Lowest unoccupied state (CBM) at    -4.70464804 eV
  | Occupation number:      0.00000000
  | Spin channel:        1

  Overall HOMO-LUMO gap:      0.36799119 eV.

  Total energy components:
  | Sum of eigenvalues            :       -4645.38204743 Ha     -126407.27704191 eV
  | XC energy correction          :        -294.00976439 Ha       -8000.41274569 eV
  | XC potential correction       :         382.23576464 Ha       10401.16436132 eV
  | Free-atom electrostatic energy:       -3252.75290547 Ha      -88511.90999429 eV
  | Hartree energy correction     :         -17.62286863 Ha        -479.54265416 eV
  | van der Waals energy corr.    :           0.00000000 Ha           0.00000000 eV
  | Entropy correction            :           0.00000000 Ha           0.00000000 eV
  | ---------------------------
  | Total energy                  :       -7827.53182128 Ha     -212997.97807473 eV
  | Total energy, T -> 0          :       -7827.53182128 Ha     -212997.97807473 eV  <-- do not rely on this value for anything but (periodic) metals
  | Electronic free energy        :       -7827.53182128 Ha     -212997.97807473 eV

  Derived energy quantities:
  | Kinetic energy                :        7987.34325867 Ha      217346.66854505 eV
  | Electrostatic energy          :      -15520.86531555 Ha     -422344.23387409 eV
  | Energy correction for multipole
  | error in Hartree potential    :          -0.00096433 Ha          -0.02624074 eV
  | Sum of eigenvalues per atom                           :      -31601.81926048 eV
  | Total energy (T->0) per atom                          :      -53249.49451868 eV  <-- do not rely on this value for anything but (periodic) metals
  | Electronic free energy per atom                       :      -53249.49451868 eV

  Self-consistency convergence accuracy:
  | Change of charge/spin density : 0.1561E+01 0.6581E+00
  | Change of sum of eigenvalues  : 0.5743E+02 eV
  | Change of total energy        : 0.6538E+01 eV

  End self-consistency iteration #     4       :  max(cpu_time)    wall_clock(cpu1)
  | Time for this iteration                    :        0.321 s           0.319 s
  | Charge density update                      :        0.142 s           0.141 s
  | Density mixing                             :        0.004 s           0.003 s
  | Hartree multipole update                   :        0.003 s           0.002 s
  | Hartree multipole summation                :        0.032 s           0.033 s
  | Integration                                :        0.129 s           0.129 s
  | Solution of K.-S. eqns.                    :        0.009 s           0.009 s
  | Total energy evaluation                    :        0.000 s           0.001 s
------------------------------------------------------------

------------------------------------------------------------
          Begin self-consistency iteration #    5

  Date     :  20220124, Time     :  175042.242
------------------------------------------------------------
  Evaluating new KS density.
  Integration grid: deviation in total charge (<rho> - N_e) =  -1.615088E-06
  | <rho_up-rho_dn> = N_up-N_dn =     -0.5778; <|rho_up-rho_dn|> =      2.9508
  Pulay mixing of updated and previous charge densities.

  Evaluating partitioned Hartree potential by multipole expansion.
  | Analytical far-field extrapolation by fixed multipoles:
  | Hartree multipole sum: apparent total charge =   0.546875E-05
  Summing up the Hartree potential.
  Time summed over all CPUs for potential: real work        0.249 s, elapsed        0.253 s
  | RMS charge density error from multipole expansion :   0.240538E-02

  Integrating Hamiltonian matrix: batch-based integration.
  Time summed over all CPUs for integration: real work        1.001 s, elapsed        1.027 s

  Updating Kohn-Sham eigenvalues, eigenvectors, occupation numbers, and Fermi level.
  Solving generalized eigenproblem
  Solving real symmetric generalised eigenvalue problem by standard ScaLAPACK.
  Using Cholesky factor for transformation
  Using 1-stage real ELPA solver
  Solving real symmetric generalised eigenvalue problem by standard ScaLAPACK.
  Using Cholesky factor for transformation
  Using 1-stage real ELPA solver
  Determining occupation numbers for Kohn-Sham eigenstates.
  | Chemical potential (Fermi level) in eV                 : -.36111459E+01
  | Error in electron count due to remaining E_F inaccuracy: 0.00000000E+00
  | Maximum occupation number of highest empty state:  0.00E+00

  Current spin moment of the entire structure :
  | N = N_up - N_down :    3.00
  | S                 :    1.50
  | J                 :    4.00

  Highest occupied state (VBM) at     -3.67343919 eV
  | Occupation number:      1.00000000
  | Spin channel:        1

  Lowest unoccupied state (CBM) at    -3.58898210 eV
  | Occupation number:      0.00000000
  | Spin channel:        1

  Overall HOMO-LUMO gap:      0.08445709 eV.

  Total energy components:
  | Sum of eigenvalues            :       -4639.56488388 Ha     -126248.98396799 eV
  | XC energy correction          :        -294.11802051 Ha       -8003.35854456 eV
  | XC potential correction       :         382.37931181 Ha       10405.07047854 eV
  | Free-atom electrostatic energy:       -3252.75290547 Ha      -88511.90999429 eV
  | Hartree energy correction     :         -23.25603049 Ha        -632.82878754 eV
  | van der Waals energy corr.    :           0.00000000 Ha           0.00000000 eV
  | Entropy correction            :          -0.00000000 Ha          -0.00000000 eV
  | ---------------------------
[...]
     55       1.00000          -0.204091           -5.55361
     56       1.00000          -0.192337           -5.23374
     57       1.00000          -0.189689           -5.16170
     58       1.00000          -0.186979           -5.08796
     59       1.00000          -0.183247           -4.98639
     60       1.00000          -0.180609           -4.91461
     61       1.00000          -0.179855           -4.89410
     62       1.00000          -0.155952           -4.24367
     63       1.00000          -0.138989           -3.78208
     64       0.00000          -0.096888           -2.63646
     65       0.00000          -0.096277           -2.61983
     66       0.00000          -0.085056           -2.31449
     67       0.00000          -0.084490           -2.29909
     68       0.00000          -0.073370           -1.99651
     69       0.00000          -0.051006           -1.38795
     70       0.00000          -0.027126           -0.73814
     71       0.00000          -0.018729           -0.50963

  Spin-down eigenvalues:

  State    Occupation    Eigenvalue [Ha]    Eigenvalue [eV]
      1       1.00000        -668.662306       -18195.22711
      2       1.00000        -281.432439        -7658.16632
      3       1.00000        -281.419745        -7657.82088
      4       1.00000        -281.419745        -7657.82088
      5       1.00000         -91.015641        -2476.66160
      6       1.00000         -81.133730        -2207.76111
      7       1.00000         -81.132710        -2207.73337
      8       1.00000         -81.132498        -2207.72761
      9       1.00000         -32.917841         -895.74004
     10       1.00000         -32.910645         -895.54423
     11       1.00000         -32.910645         -895.54423
     12       1.00000         -28.173977         -766.65292
     13       1.00000         -28.168907         -766.51497
     14       1.00000         -28.167732         -766.48298
     15       1.00000         -28.165589         -766.42468
     16       1.00000         -28.165589         -766.42468
     17       1.00000         -28.159892         -766.26965
     18       1.00000         -28.159892         -766.26964
     19       1.00000         -28.158904         -766.24275
     20       1.00000         -28.158904         -766.24275
     21       1.00000         -14.814534         -403.12398
     22       1.00000         -11.610303         -315.93241
     23       1.00000         -11.608706         -315.88897
     24       1.00000         -11.608196         -315.87510
     25       1.00000          -6.356309         -172.96397
     26       1.00000          -6.356039         -172.95662
     27       1.00000          -6.355901         -172.95286
     28       1.00000          -6.354543         -172.91591
     29       1.00000          -6.354329         -172.91009
     30       1.00000          -3.583020          -97.49895
     31       1.00000          -3.581987          -97.47083
     32       1.00000          -3.580419          -97.42816
     33       1.00000          -2.247207          -61.14962
     34       1.00000          -2.246898          -61.14120
     35       1.00000          -2.239940          -60.95186
     36       1.00000          -2.236642          -60.86212
     37       1.00000          -2.229223          -60.66024
     38       1.00000          -2.227956          -60.62576
     39       1.00000          -2.227432          -60.61152
     40       1.00000          -2.227252          -60.60662
     41       1.00000          -2.226457          -60.58498
     42       1.00000          -1.949451          -53.04726
     43       1.00000          -1.151591          -31.33638
     44       1.00000          -1.149917          -31.29083
     45       1.00000          -1.141650          -31.06588
     46       1.00000          -0.258428           -7.03217
     47       1.00000          -0.216660           -5.89561
     48       1.00000          -0.209183           -5.69216
     49       1.00000          -0.200894           -5.46659
     50       1.00000          -0.197816           -5.38286
     51       1.00000          -0.192331           -5.23360
     52       1.00000          -0.186247           -5.06804
     53       1.00000          -0.176065           -4.79098
     54       1.00000          -0.174514           -4.74877
     55       1.00000          -0.159350           -4.33613
     56       1.00000          -0.153147           -4.16735
     57       1.00000          -0.143419           -3.90264
     58       1.00000          -0.142855           -3.88729
     59       0.00000          -0.118469           -3.22370
     60       0.00000          -0.115596           -3.14553
     61       0.00000          -0.111830           -3.04304
     62       0.00000          -0.111141           -3.02431
     63       0.00000          -0.103292           -2.81071
     64       0.00000          -0.087870           -2.39107
     65       0.00000          -0.084990           -2.31270
     66       0.00000          -0.084218           -2.29169
     67       0.00000          -0.075526           -2.05516
     68       0.00000          -0.060729           -1.65251
     69       0.00000          -0.049321           -1.34209
     70       0.00000          -0.004600           -0.12517
     71       0.00000          -0.003532           -0.09612

  Current spin moment of the entire structure :
  | N = N_up - N_down :    5.00
  | S                 :    2.50
  | J                 :    6.00

  Highest occupied state (VBM) at     -3.78207609 eV
  | Occupation number:      1.00000000
  | Spin channel:        1

  Lowest unoccupied state (CBM) at    -3.22369526 eV
  | Occupation number:      0.00000000
  | Spin channel:        2

  Overall HOMO-LUMO gap:      0.55838083 eV.

  Self-consistency cycle converged.

  End self-consistency iteration #    12       :  max(cpu_time)    wall_clock(cpu1)
  | Time for this iteration                    :        0.949 s           0.952 s
  | Charge density & force component update    :        0.712 s           0.711 s
  | Density mixing                             :        0.006 s           0.007 s
  | Hartree multipole update                   :        0.003 s           0.002 s
  | Hartree multipole summation                :        0.088 s           0.089 s
  | Integration                                :        0.128 s           0.128 s
  | Solution of K.-S. eqns.                    :        0.009 s           0.009 s
  | Total energy evaluation                    :        0.001 s           0.001 s
------------------------------------------------------------
  Obtaining max. number of non-zero basis functions in each batch .
  Evaluating KS electron density on previously omitted grid points.
  Evaluating non-empirical van der Waals correction (Tkatchenko/Scheffler 2009).
  Performing Hirshfeld analysis of fragment charges and moments.
  ----------------------------------------------------------------------
  | Atom     1: Co
  |   Hirshfeld charge        :     -0.16931315
  |   Free atom volume        :    100.22352929
  |   Hirshfeld volume        :     92.39950567
  |   Hirshfeld spin moment   :      1.49454277
  |   Hirshfeld dipole vector :     -0.27744568      -0.13965869       0.00000000
  |   Hirshfeld dipole moment :      0.31061335
  |   Hirshfeld second moments:      0.12532089       0.08693649      -0.00000000
  |                                  0.08693649       0.06076384      -0.00000000
  |                                 -0.00000000      -0.00000000       0.16126467
  ----------------------------------------------------------------------
  | Atom     2: Co
  |   Hirshfeld charge        :     -0.01795381
  |   Free atom volume        :    100.22352929
  |   Hirshfeld volume        :     91.84121046
  |   Hirshfeld spin moment   :      2.41191486
  |   Hirshfeld dipole vector :     -0.18554480       0.18554480      -0.00000000
  |   Hirshfeld dipole moment :      0.26239997
  |   Hirshfeld second moments:      0.10568803      -0.07566817      -0.00000000
  |                                 -0.07566817       0.10568803       0.00000000
  |                                 -0.00000000       0.00000000       0.25946669
  ----------------------------------------------------------------------
  | Atom     3: Zr
  |   Hirshfeld charge        :      0.35650528
  |   Free atom volume        :    209.33552215
  |   Hirshfeld volume        :    172.78319720
  |   Hirshfeld spin moment   :     -0.40110338
  |   Hirshfeld dipole vector :      0.41143757      -0.41143757      -0.00000000
  |   Hirshfeld dipole moment :      0.58186059
  |   Hirshfeld second moments:      0.49550105      -0.37282150       0.00000000
  |                                 -0.37282150       0.49550105      -0.00000000
  |                                  0.00000000      -0.00000000       1.10202230
  ----------------------------------------------------------------------
  | Atom     4: Co
  |   Hirshfeld charge        :     -0.16931316
  |   Free atom volume        :    100.22352929
  |   Hirshfeld volume        :     92.39950561
  |   Hirshfeld spin moment   :      1.49454269
  |   Hirshfeld dipole vector :      0.13965869       0.27744568       0.00000000
  |   Hirshfeld dipole moment :      0.31061335
  |   Hirshfeld second moments:      0.06076384       0.08693648       0.00000000
  |                                  0.08693648       0.12532089       0.00000000
  |                                  0.00000000       0.00000000       0.16126468
  ----------------------------------------------------------------------


  Total energy components:
  | Sum of eigenvalues            :       -4641.68944427 Ha     -126306.79619756 eV
  | XC energy correction          :        -293.79763991 Ha       -7994.64054467 eV
  | XC potential correction       :         381.94857772 Ha       10393.34960744 eV
  | Free-atom electrostatic energy:       -3255.87799505 Ha      -88596.94800853 eV
  | Hartree energy correction     :         -17.93718948 Ha        -488.09575965 eV
  | van der Waals energy corr.    :          -0.00027904 Ha          -0.00759299 eV
  | Entropy correction            :           0.00000000 Ha           0.00000000 eV
  | ---------------------------
  | Total energy                  :       -7827.35397003 Ha     -212993.13849597 eV
  | Total energy, T -> 0          :       -7827.35397003 Ha     -212993.13849597 eV  <-- do not rely on this value for anything but (periodic) metals
  | Electronic free energy        :       -7827.35397003 Ha     -212993.13849597 eV

  Derived energy quantities:
  | Kinetic energy                :        7984.56764692 Ha      217271.14030663 eV
  | Electrostatic energy          :      -15518.12369800 Ha     -422269.63066494 eV
  | Energy correction for multipole
  | error in Hartree potential    :          -0.00139698 Ha          -0.03801363 eV
  | Sum of eigenvalues per atom                           :      -31576.69904939 eV
  | Total energy (T->0) per atom                          :      -53248.28462399 eV  <-- do not rely on this value for anything but (periodic) metals
  | Electronic free energy per atom                       :      -53248.28462399 eV

  atomic forces [eV/Ang]:
  -----------------------
  atom #    1
   Hellmann-Feynman              : -.188084E+02 -.178030E+01 -.120345E-07
   Multipole                     : 0.235441E+00 -.123882E-01 -.731746E-09
   Pulay + GGA                   : 0.185863E+02 0.180456E+01 -.266783E-07
   Van der Waals                 : -.125083E-01 -.123336E-01 0.607780E-12
   ----------------------------------------------------------------
   Total forces(   1)            : 0.891758E-03 -.461643E-03 -.394440E-07
  atom #    2
   Hellmann-Feynman              : 0.549149E+00 -.549150E+00 -.116981E-09
   Multipole                     : -.484262E-02 0.484263E-02 -.838957E-10
   Pulay + GGA                   : -.541221E+00 0.541221E+00 -.264024E-07
   Van der Waals                 : -.223282E-02 0.223282E-02 -.630170E-12
   ----------------------------------------------------------------
   Total forces(   2)            : 0.853149E-03 -.853550E-03 -.266039E-07
  atom #    3
   Hellmann-Feynman              : 0.493954E+02 -.493954E+02 -.533448E-07
   Multipole                     : 0.574617E-01 -.574617E-01 0.368203E-11
   Pulay + GGA                   : -.494550E+02 0.494550E+02 -.205524E-07
   Van der Waals                 : 0.240751E-02 -.240751E-02 -.585392E-12
   ----------------------------------------------------------------
   Total forces(   3)            : 0.254892E-03 -.255192E-03 -.738941E-07
  atom #    4
   Hellmann-Feynman              : 0.178030E+01 0.188084E+02 -.124622E-07
   Multipole                     : 0.123883E-01 -.235441E+00 -.727440E-09
   Pulay + GGA                   : -.180456E+01 -.185863E+02 -.215553E-07
   Van der Waals                 : 0.123336E-01 0.125083E-01 0.607783E-12
   ----------------------------------------------------------------
   Total forces(   4)            : 0.462039E-03 -.891424E-03 -.347443E-07
  Timings for VdW correction (Tkatchenko-Scheffler 2009 or later):
  | CPU time:        0.021 s, Wall clock time:        0.021 s.
  Removing unitary transformations (pure translations, rotations) from forces on atoms.
  Atomic forces before filtering:
  | Net force on center of mass :  0.246184E-02 -.246181E-02 -.174686E-06 eV/A
  | Net torque on center of mass:  0.515904E-07 0.402128E-07 0.118898E-07 eV
  Atomic forces after filtering:
  | Net force on center of mass :  0.000000E+00 -.174225E-18 -.531692E-23 eV/A
  | Net torque on center of mass:  0.133646E-22 0.281359E-22 0.115245E-18 eV

  Energy and forces in a compact form:
  | Total energy uncorrected      :         -0.212993138495966E+06 eV
  | Total energy corrected        :         -0.212993138495966E+06 eV  <-- do not rely on this value for anything but (periodic) metals
  | Electronic free energy        :         -0.212993138495966E+06 eV
  Total atomic forces (unitary forces cleaned) [eV/Ang]:
  |   1          0.276296959715184E-03          0.153810594166943E-03          0.636200675038789E-08
  |   2          0.237690486576850E-03         -0.238096923082562E-03         -0.647743551750186E-08
  |   3         -0.360568287490486E-03          0.360259065692279E-03         -0.624657855110403E-08
  |   4         -0.153419158801548E-03         -0.275972736776660E-03          0.636200731821798E-08

  ------------------------------------ 
  Start decomposition of the XC Energy 
  ------------------------------------ 
  Hartree-Fock part   :          0.000000000 Ha              0.000000000 eV
  ------------------------------------ 
  X Energy            :       -288.101921088 Ha          -7839.652149906 eV
  C Energy GGA        :         -5.695718818 Ha           -154.988394767 eV
  Total XC Energy     :       -293.797639906 Ha          -7994.640544672 eV
  LDA X and C from self-consistent density 
  X Energy LDA        :       -272.044455871 Ha          -7402.706289789 eV
  C Energy LDA        :        -10.657321975 Ha           -290.000485991 eV
  ------------------------------------ 
  End decomposition of the XC Energy 
  ------------------------------------ 
  Relaxation / MD: End force evaluation.       :  max(cpu_time)    wall_clock(cpu1)
  | Time for this force evaluation             :        4.643 s           4.690 s

------------------------------------------------------------
  Geometry optimization: Attempting to predict improved coordinates.

  Removing unitary transformations (pure translations, rotations) from forces on atoms.
  Atomic forces before filtering:
  | Net force on center of mass :  0.000000E+00 -.174225E-18 -.531692E-23 eV/A
  | Net torque on center of mass:  0.133646E-22 0.281359E-22 0.115245E-18 eV
  Atomic forces after filtering:
  | Net force on center of mass :  0.217781E-19 0.435562E-19 0.000000E+00 eV/A
  | Net torque on center of mass:  0.703398E-24 0.281359E-23 0.460979E-19 eV
  Net remaining forces (excluding translations, rotations) in present geometry:
  Maximum force component is  0.360568E-03 eV/A.
  Present geometry is converged.

------------------------------------------------------------
  Final atomic structure:
                         x [A]             y [A]             z [A]
            atom        -0.21922134       -0.20170934        0.00000000  Co
            atom         0.04299373        1.95700628       -0.00000000  Co
            atom         1.97451829        0.02548173       -0.00000000  Zr
            atom         2.20170932        2.21922132        0.00000000  Co
------------------------------------------------------------

------------------------------------------------------------------------------
  Final output of selected total energy values:

  The following output summarizes some interesting total energy values
  at the end of a run (AFTER all relaxation, molecular dynamics, etc.).

  | Total energy of the DFT / Hartree-Fock s.c.f. calculation      :        -212993.138495966 eV
  | Final zero-broadening corrected energy (caution - metals only) :        -212993.138495966 eV
  | For reference only, the value of 1 Hartree used in FHI-aims is :             27.211384500 eV

  Before relying on these values, please be sure to understand exactly which
  total energy value is referred to by a given number. Different objects may
  all carry the same name 'total energy'. Definitions:

  Total energy of the DFT / Hartree-Fock s.c.f. calculation:
  | Note that this energy does not include ANY quantities calculated after the
  | s.c.f. cycle, in particular not ANY RPA, MP2, etc. many-body perturbation terms.

  Final zero-broadening corrected energy:
  | For metallic systems only, a broadening of the occupation numbers at the Fermi
  | level can be extrapolated back to zero broadening by an electron-gas inspired
  | formula. For all systems that are not real metals, this value can be
  | meaningless and should be avoided.

------------------------------------------------------------------------------

------------------------------------------------------------
          Leaving FHI-aims.
          Date     :  20220124, Time     :  175149.079

          Computational steps:
          | Number of self-consistency cycles          :          188
          | Number of relaxation steps                 :            7

          Detailed time accounting                     :  max(cpu_time)    wall_clock(cpu1)
          | Total time                                 :       69.079 s          69.501 s
          | Preparation time                           :        1.025 s           1.032 s
          | Grid partitioning                          :        0.223 s           0.197 s
          | Preloading free-atom quantities on grid    :        0.160 s           0.161 s
          | Free-atom superposition energy             :        0.094 s           0.094 s
          | Total time for integrations                :       24.910 s          24.906 s
          | Total time for solution of K.-S. equations :        1.783 s           1.805 s
          | Total time for EV reorthonormalization     :        0.025 s           0.023 s
          | Total time for density & force components  :       31.731 s          31.485 s
          | Total time for mixing                      :        1.036 s           1.037 s
          | Total time for Hartree multipole update    :        0.478 s           0.492 s
          | Total time for Hartree multipole sum       :        6.974 s           6.987 s
          | Total time for total energy evaluation     :        0.045 s           0.110 s
          | Total time for scaled ZORA corrections     :        0.000 s           0.000 s
          | Total time for vdW correction              :        0.142 s           0.140 s

          Have a nice day.
------------------------------------------------------------
