  MPI-parallelism will be employed.
------------------------------------------------------------
          Invoking FHI-aims ...
          Version 052014
          Git rev. (modified): 096c982 Merge branch master of fhiaims:/pub/localo[...]
          Compiled on 2016/12/16 at 15:22:01 on host login02.hpc.iitd.ac.in.

          When using FHI-aims, please cite the following reference:

          Volker Blum, Ralf Gehrke, Felix Hanke, Paula Havu,
          Ville Havu, Xinguo Ren, Karsten Reuter, and Matthias Scheffler,
          'Ab Initio Molecular Simulations with Numeric Atom-Centered Orbitals: FHI-aims',
          Computer Physics Communications 180, 2175-2196 (2009)

          For any questions about FHI-aims, please visit the aimsclub website
          with its forums and wiki. Contributions to both the forums and the
          wiki are warmly encouraged - they are for you, and everyone is welcome there.

------------------------------------------------------------

  Date     :  20220120, Time     :  153044.613
  Time zero on CPU 1             :   0.115770000000000E-01  s.
  Internal wall clock time zero  :           411924644.613  s.

  Using        8 parallel tasks.
  Task        0 on host csky029 reporting.
  Task        1 on host csky029 reporting.
  Task        2 on host csky029 reporting.
  Task        3 on host csky029 reporting.
  Task        4 on host csky029 reporting.
  Task        5 on host csky029 reporting.
  Task        6 on host csky029 reporting.
  Task        7 on host csky029 reporting.

  Performing system and environment tests:
  | Environment variable OMP_NUM_THREADS correctly set to 1.
  | Stacksize not measured: no C compiler
  | Checking for scalapack...
  | Testing pdtran()...
  | All pdtran() tests passed.

  Obtaining array dimensions for all initial allocations:
  
  -----------------------------------------------------------------------
  Parsing control.in (first pass over file, find array dimensions only).
  The contents of control.in will be repeated verbatim below
  unless switched off by setting 'verbatim_writeout .false.' .
  in the first line of control.in .
  -----------------------------------------------------------------------
  
    xc               pbe
    spin             collinear
    default_initial_moment hund
    relativistic     atomic_zora scalar 1e-9
    occupation_type  gaussian 0.001
    charge        0
    vdw_correction_hirshfeld
    KS_method        scalapack_fast
    mixer            pulay
    charge_mix_param  0.4
    spin_mix_param    0.6
    sc_accuracy_rho  1E-4
    sc_accuracy_eev  1E-5
    sc_accuracy_etot 1E-5
    sc_iter_limit    100
    empty_states     10
  ################################################################################
  #
  #  FHI-aims code project
  # Volker Blum, Fritz Haber Institute Berlin, 2009
  #
  #  Suggested "tight" defaults for H atom (to be pasted into control.in file)
  #
  ################################################################################
    species        H
  #     global species definitions
      nucleus             1
      mass                1.00794
  #
      l_hartree           6
  #
      cut_pot             4.0  2.0  1.0
      basis_dep_cutoff    1e-4
  #
      radial_base         24 7.0
      radial_multiplier   2
      angular_grids       specified
        division   0.1930   50
        division   0.3175  110
        division   0.4293  194
        division   0.5066  302
        division   0.5626  434
  #      division   0.5922  590
  #      division   0.6227  974
  #      division   0.6868 1202
  #      outer_grid  770
        outer_grid  434
  ################################################################################
  #
  #  Definition of "minimal" basis
  #
  ################################################################################
  #     valence basis states
      valence      1  s   1.
  #     ion occupancy
      ion_occ      1  s   0.5
  ################################################################################
  #
  #  Suggested additional basis functions. For production calculations,
  #  uncomment them one after another (the most important basis functions are
  #  listed first).
  #
  #  Basis constructed for dimers: 0.5 A, 0.7 A, 1.0 A, 1.5 A, 2.5 A
  #
  ################################################################################
  #  "First tier" - improvements: -1014.90 meV to -62.69 meV
       hydro 2 s 2.1
       hydro 2 p 3.5
  #  "Second tier" - improvements: -12.89 meV to -1.83 meV
       hydro 1 s 0.85
       hydro 2 p 3.7
       hydro 2 s 1.2
       hydro 3 d 7
  #  "Third tier" - improvements: -0.25 meV to -0.12 meV
  #     hydro 4 f 11.2
  #     hydro 3 p 4.8
  #     hydro 4 d 9
  #     hydro 3 s 3.2
  ################################################################################
  #
  # For methods that use the localized form of the "resolution of identity" for
  # the two-electron Coulomb operator (RI_method LVL), particularly Hartree-Fock and
  # hybrid density functional calculations, the highest accuracy can be obtained by
  # uncommenting the line beginning with "for_aux"  below, thus adding an extra g radial
  # function to the construction of the product basis set for the expansion.
  # See Ref. New J. Phys. 17, 093020 (2015) for more information, particularly Figs. 1 and 6.
  #
  ################################################################################
  #
  # for_aux hydro 5 g 6.0
  
  -----------------------------------------------------------------------
  Completed first pass over input file control.in .
  -----------------------------------------------------------------------
  
  
  -----------------------------------------------------------------------
  Parsing geometry.in (first pass over file, find array dimensions only).
  The contents of geometry.in will be repeated verbatim below
  unless switched off by setting 'verbatim_writeout .false.' .
  in the first line of geometry.in .
  -----------------------------------------------------------------------
  
  atom 0 0 0 H
  atom 0 0 0.93 H
  
  -----------------------------------------------------------------------
  Completed first pass over input file geometry.in .
  -----------------------------------------------------------------------
  

  Basic array size parameters:
  | Number of species                 :        1
  | Number of atoms                   :        2
  | Max. basis fn. angular momentum   :        2
  | Max. atomic/ionic basis occupied n:        1
  | Max. number of basis fn. types    :        2
  | Max. radial fns per species/type  :        6
  | Max. logarithmic grid size        :     1131
  | Max. radial integration grid size :       49
  | Max. angular integration grid size:      434
  | Max. angular grid division number :        8
  | Radial grid for Hartree potential :     1131
  | Number of spin channels           :        2

------------------------------------------------------------
          Reading file control.in.
------------------------------------------------------------
  XC: Using PBE gradient-corrected functionals.
  Spin treatment: Spin density functional theory - collinear spins.
  Initial spin moment per atom set according to Hund's rules.
  Scalar relativistic treatment of kinetic energy: on-site free-atom approximation to ZORA.
  Occupation type: Gaussian broadening, width =   0.100000E-02 eV.
  Charge =   0.000000E+00: Neutral system requested explicitly.
  Using non-empirical van der Waals correction (Hirshfeld partitioning):
  Kohn-Sham eigenvalues and eigenfunctions calculated by the ELPA eigensolver library.
  Using pulay charge density mixing.
  Charge density mixing - mixing parameter:     0.4000
  Spin density mixing - mixing parameter:     0.6000
  Convergence accuracy of self-consistent charge density: 0.1000E-03
  Convergence accuracy of sum of eigenvalues: 0.1000E-04
  Convergence accuracy of total energy: 0.1000E-04
  Maximum number of s.-c. iterations  :   100
  Number of empty states per atom:       10
 
  Reading configuration options for species H                   .
  | Found nuclear charge :   1.0000
  | Found atomic mass :    1.00794000000000      amu
  | Found l_max for Hartree potential  :   6
  | Found cutoff potl. onset [A], width [A], scale factor :    4.00000    2.00000    1.00000
  | Threshold for basis-dependent cutoff potential is   0.100000E-03
  | Found data for basic radial integration grid :    24 points, outermost radius =    7.000 A
  | Found multiplier for basic radial grid :   2
  | Found angular grid specification: user-specified.
  | Specified grid contains     6 separate shells.
  | Check grid settings after all constraints further below.
  | Found free-atom valence shell :  1 s   1.000
  | No ionic wave fns used. Skipping ion_occ.
  | Found hydrogenic basis function :  2 s   2.100
  | Found hydrogenic basis function :  2 p   3.500
  | Found hydrogenic basis function :  1 s   0.850
  | Found hydrogenic basis function :  2 p   3.700
  | Found hydrogenic basis function :  2 s   1.200
  | Found hydrogenic basis function :  3 d   7.000
  Species H                   : Missing cutoff potential type.
  Defaulting to exp(1/x)/(1-x)^2 type cutoff potential.
  Species H : No 'logarithmic' tag. Using default grid for free atom:
  | Default logarithmic grid data [bohr] : 0.1000E-03 0.1000E+03 0.1012E+01
  Species H : On-site basis accuracy parameter (for Gram-Schmidt orthonormalisation) not specified.
  Using default value basis_acc =  0.1000000E-03.
  Species H                   : Using default innermost maximum threshold i_radial=  2 for radial functions.
  Species H                   : Default cutoff onset for free atom density etc. : 0.40000000E+01 AA.
  Species H                   : Basic radial grid will be enhanced according to radial_multiplier =   2, to contain    49 grid points.
 
  Finished reading input file 'control.in'. Consistency checks are next.
 
  Target number of points in a grid batch is not set. Defaulting to  100
  Method for grid partitioning is not set. Defaulting to parallel hash+maxmin partitioning.
  Batch size limit is not set. Defaulting to    200
  By default, will store active basis functions for each batch.
  If in need of memory, prune_basis_once .false. can be used to disable this option.
  communication_type for Hartree potential was not specified.
  Defaulting to calc_hartree .
  Pulay mixer: Number of relevant iterations not set.
  Defaulting to    8 iterations.
  Pulay mixer: Number of initial linear mixing iterations not set.
  Defaulting to    0 iterations.
  Work space size for distributed Hartree potential not set.
  Defaulting to   0.200000E+03 MB.
  Algorithm-dependent basis array size parameters:
  | n_max_pulay                         :        8
  Calculation of forces was not defined in control.in. No forces will be calculated.
  Geometry relaxation not requested: no relaxation will be performed.
  No accuracy limit for integral partition fn. given. Defaulting to 0.1000E-14.
  No threshold value for u(r) in integrations given. Defaulting to 0.1000E-05.
  No accuracy for occupation numbers given. Defaulting to 0.1000E-07.
  No threshold value for occupation numbers given. Defaulting to 0.0000E+00.
  No accuracy for fermi level given. Defaulting to 0.1000E-19.
  Maximum # of iterations to find E_F not set. Defaulting to  200.
  Will not use alltoall communication since running on < 1024 CPUs.
  Threshold for basis singularities not set.
  Default threshold for basis singularities: 0.1000E-04
  partition_type (choice of integration weights) for integrals was not specified.
  | Using a version of the partition function of Stratmann and coworkers ('stratmann_smoother').
  | At each grid point, the set of atoms used to build the partition table is smoothly restricted to
  | only those atoms whose free-atom density would be non-zero at that grid point.
  Partitioning for Hartree potential was not defined. Using partition_type for integrals.
  | Adjusted default value of keyword multip_moments_threshold to:       0.10000000E-11
  | This value may affect high angular momentum components of the Hartree potential in periodic systems.
  No q(lm)/r^(l+1) cutoff set for long-range Hartree potential.
  | Using default value of  0.100000E-09 .
  | Verify using the multipole_threshold keyword.
  Defaulting to new monopole extrapolation.
  Density update method: automatic selection selected.
------------------------------------------------------------


------------------------------------------------------------
          Reading geometry description geometry.in.
------------------------------------------------------------
  Input structure read successfully.
  The structure contains        2 atoms,  and a total of          2.000 electrons.

  Input geometry:
  | No unit cell requested.
  | Atomic structure:
  |       Atom                x [A]            y [A]            z [A]
  |    1: Species H              0.000000         0.000000         0.000000
  |    2: Species H              0.000000         0.000000         0.930000
  |

  | The smallest distance between any two atoms is         0.93000000 AA.
  |
  | The first atom of this pair is atom number                      1 .
  | The second atom of this pair is atom number                     2 .

  Initial moments and charges:
  |  Atom   Moment         Charge        Species
  |     1  (Hund's rule)   0.000000E+00   H
  |     2  (Hund's rule)   0.000000E+00   H

  Structure-dependent array size parameters: 
  | Number of distinct atom types in initial rho :        1
  | Maximum number of distinct radial functions  :        7
  | Maximum number of basis functions            :       30
  | Number of Kohn-Sham states (occupied + empty):       11
------------------------------------------------------------

------------------------------------------------------------
          Preparing all fixed parts of the calculation.
------------------------------------------------------------
  Determining machine precision:
    2.225073858507201E-308
  Setting up grids for atomic and cluster calculations.

  Creating wave function, potential, and density for free atoms.

  Species: H

  List of occupied orbitals and eigenvalues:
    n    l              occ      energy [Ha]    energy [eV]
    1    0           1.0000        -0.238386        -6.4868

  Spin-polarized or charged system:
  Charge density initialized according to selected moments and charges.

  Creating spin-polarized density from free atoms.

  Species: H
  Charge:   0.000000
  applying Hund's rules ...

  List of occupied orbitals and eigenvalues:
    n    l      energy [Ha]    energy [eV]    occupation
  Spin-up
    1    0        -0.278991        -7.5917     1.00000000
  Spin-down
    1    0         0.090850         2.4721     0.00000000

  Creating fixed part of basis set: Ionic, confined, hydrogenic.
 
  H                    hydrogenic:
 
  List of hydrogenic basis orbitals: 
    n    l      effective z      eigenvalue [eV]  inner max. [A]     outer max. [A]     outer radius [A]   
    2    0         2.100000       -14.9965           0.193243           1.317208           5.373006
    2    1         3.500000       -41.6672           0.602369           0.602369           4.056063
    1    0         0.850000        -9.8292           0.624871           0.624871           5.373006
    2    1         3.700000       -46.5653           0.573622           0.573622           3.910002
    2    0         1.200000        -4.5995           0.334980           2.228188           5.505995
    3    2         7.000000       -74.0753           0.680699           0.680699           3.769201
 

  Adding cutoff potential to free-atom effective potential.
  Creating atomic-like basis functions for current effective potential.

  Species H                   :

  List of atomic basis orbitals and eigenvalues:
    n    l      energy [Ha]    energy [eV]    outer radius [A]
    1    0        -0.238386        -6.4868       5.373006

  Assembling full basis from fixed parts.
  | Species H :   atomic orbital   1 s accepted.
  | Species H :    hydro orbital   2 s accepted.
  | Species H :    hydro orbital   1 s accepted.
  | Species H :    hydro orbital   2 s accepted.
  | Species H :    hydro orbital   2 p accepted.
  | Species H :    hydro orbital   2 p accepted.
  | Species H :    hydro orbital   3 d accepted.
 
  Basis size parameters after reduction:
  | Total number of radial functions:        7
  | Total number of basis functions :       30
 
  Testing on-site integration grid accuracy.
  |  Species  Function  <phi|h_atom|phi> (log., in eV)  <phi|h_atom|phi> (rad., in eV)
           1        1                 -6.4870767962                 -6.4871688290
           1        2                 13.5032046589                 13.5028982997
           1        3                 32.8195184817                 32.8119941656
           1        4                 33.8513856511                 33.7670005767 ***
           1        5                 28.8544614965                 28.8544615203
           1        6                 59.6326952547                 59.6327656460
           1        7                 60.2719308513                 60.2719305949
 * Note: Onsite integrals marked "***" above are less accurate than
 * onsite_accuracy_threshold =    0.03000 eV. Usually, this is harmless.
 * When in doubt, tighten the "radial" and/or "radial_multiplier" flags to check.

  Preparing densities etc. for the partition functions (integrals / Hartree potential).

  Preparations completed.
  max(cpu_time)          :      0.077 s.
  Wall clock time (cpu1) :      0.078 s.
------------------------------------------------------------

------------------------------------------------------------
          Begin self-consistency loop: Initialization.

          Date     :  20220120, Time     :  153044.763
------------------------------------------------------------

  Initializing index lists of integration centers etc. from given atomic structure:
  | Number of centers in hartree potential         :         2
  | Number of centers in hartree multipole         :         2
  | Number of centers in electron density summation:         2
  | Number of centers in basis integrals           :         2
  | Number of centers in integrals                 :         2
  Using modified Scalapack Eigenvalue solver (ELPA)
  * Using 8 tasks for Scalapack Eigenvalue solver.
  Detailed listing of tasks and assigned k-points:
  (for non-periodic systems, the "k-point" denotes an internal label only)
   Task     0 k-point     1 on csky029
   Task     1 k-point     1 on csky029
   Task     2 k-point     1 on csky029
   Task     3 k-point     1 on csky029
   Task     4 k-point     1 on csky029
   Task     5 k-point     1 on csky029
   Task     6 k-point     1 on csky029
   Task     7 k-point     1 on csky029
  Tasks:     8 split into      4 X      2 BLACS grid
  Calculating blocksize based on n_basis =           30 max_nprow =            4 max_npcol =            2
  Scalapack blocksize set to:            4
  Required Scalapack workspace - INTEGER:            1 REAL:             1
  Partitioning the integration grid into batches with parallel hashing+maxmin method.
  | Number of batches:      446
  | Maximal batch size:     197
  | Minimal batch size:      49
  | Average batch size:      64.798
  | Standard deviation of batch sizes:      18.424

  Integration load balanced across     8 MPI tasks.
  Work distribution over tasks is as follows:
  Task     0 has       3662 integration points.
  Task     1 has       3681 integration points.
  Task     2 has       3582 integration points.
  Task     3 has       3581 integration points.
  Task     4 has       3626 integration points.
  Task     5 has       3588 integration points.
  Task     6 has       3593 integration points.
  Task     7 has       3587 integration points.
  Initializing partition tables, free-atom densities, potentials, etc. across the integration grid (initialize_grid_storage).
  | initialize_grid_storage: Actual outermost partition radius vs. multipole_radius_free
  | (-- VB: in principle, multipole_radius_free should be larger, hence this output)
  | Species        1: outer_partition_radius =              6.000000000000000 AA, multipole_radius_free =              6.071692442739658 AA.
  | Original list of interatomic distances with           2 x          2 entries is created.
  | Net number of integration points:    28900
  | of which are non-zero points    :    26936
  Obtaining max. number of non-zero basis functions in each batch (get_n_compute_maxes).
  | Maximal number of non-zero basis functions:       30 in task     0
  | Maximal number of non-zero basis functions:       30 in task     1
  | Maximal number of non-zero basis functions:       30 in task     2
  | Maximal number of non-zero basis functions:       30 in task     3
  | Maximal number of non-zero basis functions:       30 in task     4
  | Maximal number of non-zero basis functions:       30 in task     5
  | Maximal number of non-zero basis functions:       30 in task     6
  | Maximal number of non-zero basis functions:       30 in task     7
  Selecting the method for density update.
  Loop over occupied states selected for charge density update.
  Integrating Hamiltonian matrix: batch-based integration.
  Time summed over all CPUs for integration: real work        0.083 s, elapsed        0.087 s
  Integrating overlap matrix.
  Time summed over all CPUs for integration: real work        0.021 s, elapsed        0.027 s
  Deallocating overlap matrix.

  Updating Kohn-Sham eigenvalues, eigenvectors, occupation numbers, and Fermi level.
  Solving generalized eigenproblem
  Solving real symmetric generalised eigenvalue problem by standard ScaLAPACK.
  Transforming overlap matrix with ScaLAPACK and checking for singularities.
  : Overlap matrix is nonsingular, using Cholesky decomposition
  | Lowest eigenvalue:  0.860420E-03
  Factoring overlap matrix with Cholesky decomposition
  Using Cholesky factor for transformation
  Using 1-stage real ELPA solver
  Solving real symmetric generalised eigenvalue problem by standard ScaLAPACK.
  Using Cholesky factor for transformation
  Using 1-stage real ELPA solver
  Determining occupation numbers for Kohn-Sham eigenstates.
  | Chemical potential (Fermi level) in eV                 : -.19573790E+01
  | Error in electron count due to remaining E_F inaccuracy: 0.00000000E+00
  | Maximum occupation number of highest empty state:  0.00E+00

  Writing Kohn-Sham eigenvalues.

  Spin-up eigenvalues:

  State    Occupation    Eigenvalue [Ha]    Eigenvalue [eV]
      1       1.00000          -0.513419          -13.97084
      2       1.00000          -0.096190           -2.61746
      3       0.00000           0.015676            0.42656
      4       0.00000           0.090251            2.45586
      5       0.00000           0.218209            5.93778
      6       0.00000           0.218209            5.93778
      7       0.00000           0.321444            8.74694
      8       0.00000           0.424672           11.55591
      9       0.00000           0.598995           16.29948
     10       0.00000           0.635164           17.28370
     11       0.00000           0.635164           17.28370

  Spin-down eigenvalues:

  State    Occupation    Eigenvalue [Ha]    Eigenvalue [eV]
      1       0.00000           0.099393            2.70461
      2       0.00000           0.116113            3.15960
      3       0.00000           0.503943           13.71298
      4       0.00000           0.543073           14.77776
      5       0.00000           1.128708           30.71372
      6       0.00000           1.128708           30.71372
      7       0.00000           1.284988           34.96630
      8       0.00000           1.500209           40.82277
      9       0.00000           1.500209           40.82277
     10       0.00000           1.532932           41.71319
     11       0.00000           1.616104           43.97643

  Current spin moment of the entire structure :
  | N = N_up - N_down :    2.00
  | S                 :    1.00
  | J                 :    3.00

  Highest occupied state (VBM) at     -2.61745666 eV
  | Occupation number:      1.00000000
  | Spin channel:        1

  Lowest unoccupied state (CBM) at     0.42656476 eV
  | Occupation number:      0.00000000
  | Spin channel:        1

  Overall HOMO-LUMO gap:      3.04402142 eV.
  Calculating total energy contributions from superposition of free atom densities.

  Total energy components:
  | Sum of eigenvalues            :          -0.60960861 Ha         -16.58829440 eV
  | XC energy correction          :          -0.66781068 Ha         -18.17205326 eV
  | XC potential correction       :           0.86076193 Ha          23.42252371 eV
  | Free-atom electrostatic energy:          -0.44703117 Ha         -12.16433705 eV
  | Hartree energy correction     :           0.00000000 Ha           0.00000000 eV
  | van der Waals energy corr.    :           0.00000000 Ha           0.00000000 eV
  | Entropy correction            :           0.00000000 Ha           0.00000000 eV
  | ---------------------------
  | Total energy                  :          -0.86368854 Ha         -23.50216100 eV
  | Total energy, T -> 0          :          -0.86368854 Ha         -23.50216100 eV  <-- do not rely on this value for anything but (periodic) metals
  | Electronic free energy        :          -0.86368854 Ha         -23.50216100 eV

  Derived energy quantities:
  | Kinetic energy                :           1.12688547 Ha          30.66411372 eV
  | Electrostatic energy          :          -1.32276333 Ha         -35.99422146 eV
  | Energy correction for multipole
  | error in Hartree potential    :           0.00000000 Ha           0.00000000 eV
  | Sum of eigenvalues per atom                           :          -8.29414720 eV
  | Total energy (T->0) per atom                          :         -11.75108050 eV  <-- do not rely on this value for anything but (periodic) metals
  | Electronic free energy per atom                       :         -11.75108050 eV
  Initialize hartree_potential_storage
  Max. number of atoms included in rho_multipole:            2

  End scf initialization - timings             :  max(cpu_time)    wall_clock(cpu1)
  | Time for scf. initialization               :        0.041 s           0.041 s
  | Boundary condition initialization          :        0.000 s           0.000 s
  | Integration                                :        0.015 s           0.015 s
  | Solution of K.-S. eqns.                    :        0.007 s           0.007 s
  | Grid partitioning                          :        0.007 s           0.007 s
  | Preloading free-atom quantities on grid    :        0.004 s           0.003 s
  | Free-atom superposition energy             :        0.002 s           0.003 s
  | Total energy evaluation                    :        0.000 s           0.001 s
------------------------------------------------------------

------------------------------------------------------------
          Begin self-consistency iteration #    1

  Date     :  20220120, Time     :  153044.804
------------------------------------------------------------
  Evaluating new KS density.
  Integration grid: deviation in total charge (<rho> - N_e) =   4.670393E-07
  | <rho_up-rho_dn> = N_up-N_dn =      2.0000; <|rho_up-rho_dn|> =      2.0514
  Pulay mixing of updated and previous charge densities.

  Evaluating partitioned Hartree potential by multipole expansion.
  | Analytical far-field extrapolation by fixed multipoles:
  | Hartree multipole sum: apparent total charge =  -0.359699E-05
  Summing up the Hartree potential.
  Time summed over all CPUs for potential: real work        0.034 s, elapsed        0.035 s
  | RMS charge density error from multipole expansion :   0.592612E-03

  Integrating Hamiltonian matrix: batch-based integration.
  Time summed over all CPUs for integration: real work        0.067 s, elapsed        0.069 s

  Updating Kohn-Sham eigenvalues, eigenvectors, occupation numbers, and Fermi level.
  Solving generalized eigenproblem
  Solving real symmetric generalised eigenvalue problem by standard ScaLAPACK.
  Using Cholesky factor for transformation
  Using 1-stage real ELPA solver
  Solving real symmetric generalised eigenvalue problem by standard ScaLAPACK.
  Using Cholesky factor for transformation
  Using 1-stage real ELPA solver
  Determining occupation numbers for Kohn-Sham eigenstates.
  | Chemical potential (Fermi level) in eV                 : -.27496771E+01
  | Error in electron count due to remaining E_F inaccuracy: 0.00000000E+00
  | Maximum occupation number of highest empty state:  0.00E+00

  Writing Kohn-Sham eigenvalues.

  Spin-up eigenvalues:

  State    Occupation    Eigenvalue [Ha]    Eigenvalue [eV]
      1       1.00000          -0.357741           -9.73463
      2       0.00000           0.071866            1.95556
      3       0.00000           0.076612            2.08473
      4       0.00000           0.200628            5.45937
      5       0.00000           0.282372            7.68374
      6       0.00000           0.282372            7.68374
      7       0.00000           0.395160           10.75284
      8       0.00000           0.590113           16.05778
      9       0.00000           0.766029           20.84471
     10       0.00000           0.766029           20.84471
     11       0.00000           0.815610           22.19388

  Spin-down eigenvalues:

  State    Occupation    Eigenvalue [Ha]    Eigenvalue [eV]
      1       1.00000          -0.180553           -4.91309
      2       0.00000           0.091029            2.47704
      3       0.00000           0.096096            2.61490
      4       0.00000           0.251838            6.85286
      5       0.00000           0.388521           10.57220
      6       0.00000           0.388521           10.57220
      7       0.00000           0.470442           12.80139
      8       0.00000           0.683789           18.60684
      9       0.00000           0.849005           23.10261
     10       0.00000           0.851959           23.18297
     11       0.00000           0.851959           23.18297

  Current spin moment of the entire structure :
  | N = N_up - N_down :    0.00
  | S                 :    0.00
  | J                 :    1.00

  Highest occupied state (VBM) at     -4.91308903 eV
  | Occupation number:      1.00000000
  | Spin channel:        2

  Lowest unoccupied state (CBM) at     1.95556440 eV
  | Occupation number:      0.00000000
  | Spin channel:        1

  Overall HOMO-LUMO gap:      6.86865343 eV.

  Total energy components:
  | Sum of eigenvalues            :          -0.53829384 Ha         -14.64772079 eV
  | XC energy correction          :          -0.37157199 Ha         -10.11098827 eV
  | XC potential correction       :           0.47854863 Ha          13.02197073 eV
  | Free-atom electrostatic energy:          -0.44703117 Ha         -12.16433705 eV
  | Hartree energy correction     :          -0.01609254 Ha          -0.43790031 eV
  | van der Waals energy corr.    :           0.00000000 Ha           0.00000000 eV
  | Entropy correction            :           0.00000000 Ha           0.00000000 eV
  | ---------------------------
  | Total energy                  :          -0.89444092 Ha         -24.33897570 eV
  | Total energy, T -> 0          :          -0.89444092 Ha         -24.33897570 eV  <-- do not rely on this value for anything but (periodic) metals
  | Electronic free energy        :          -0.89444092 Ha         -24.33897570 eV

  Derived energy quantities:
  | Kinetic energy                :           0.86331925 Ha          23.49211206 eV
  | Electrostatic energy          :          -1.38618818 Ha         -37.72009948 eV
  | Energy correction for multipole
  | error in Hartree potential    :          -0.00015069 Ha          -0.00410057 eV
  | Sum of eigenvalues per atom                           :          -7.32386039 eV
  | Total energy (T->0) per atom                          :         -12.16948785 eV  <-- do not rely on this value for anything but (periodic) metals
  | Electronic free energy per atom                       :         -12.16948785 eV

  Self-consistency convergence accuracy:
  | Change of charge/spin density : 0.3984E-01 0.3984E-01
  | Change of sum of eigenvalues  : 0.1941E+01 eV
  | Change of total energy        : -.8368E+00 eV

  End self-consistency iteration #     1       :  max(cpu_time)    wall_clock(cpu1)
  | Time for this iteration                    :        0.026 s           0.026 s
  | Charge density update                      :        0.007 s           0.007 s
  | Density mixing                             :        0.001 s           0.000 s
  | Hartree multipole update                   :        0.001 s           0.002 s
  | Hartree multipole summation                :        0.005 s           0.005 s
  | Integration                                :        0.009 s           0.009 s
  | Solution of K.-S. eqns.                    :        0.001 s           0.001 s
  | Total energy evaluation                    :        0.000 s           0.001 s
------------------------------------------------------------

------------------------------------------------------------
          Begin self-consistency iteration #    2

  Date     :  20220120, Time     :  153044.832
------------------------------------------------------------
  Evaluating new KS density.
  Integration grid: deviation in total charge (<rho> - N_e) =   2.802236E-07
  | <rho_up-rho_dn> = N_up-N_dn =     -2.0000; <|rho_up-rho_dn|> =      2.0000
  Pulay mixing of updated and previous charge densities.

  Evaluating partitioned Hartree potential by multipole expansion.
  | Analytical far-field extrapolation by fixed multipoles:
  | Hartree multipole sum: apparent total charge =  -0.353817E-05
  Summing up the Hartree potential.
  Time summed over all CPUs for potential: real work        0.033 s, elapsed        0.034 s
  | RMS charge density error from multipole expansion :   0.559915E-03

  Integrating Hamiltonian matrix: batch-based integration.
  Time summed over all CPUs for integration: real work        0.069 s, elapsed        0.070 s

  Updating Kohn-Sham eigenvalues, eigenvectors, occupation numbers, and Fermi level.
  Solving generalized eigenproblem
  Solving real symmetric generalised eigenvalue problem by standard ScaLAPACK.
  Using Cholesky factor for transformation
  Using 1-stage real ELPA solver
  Solving real symmetric generalised eigenvalue problem by standard ScaLAPACK.
  Using Cholesky factor for transformation
  Using 1-stage real ELPA solver
  Determining occupation numbers for Kohn-Sham eigenstates.
  | Chemical potential (Fermi level) in eV                 : -.54360734E+01
  | Error in electron count due to remaining E_F inaccuracy: 0.00000000E+00
  | Maximum occupation number of highest empty state:  0.00E+00

  Current spin moment of the entire structure :
  | N = N_up - N_down :    0.00
  | S                 :    0.00
  | J                 :    1.00

  Highest occupied state (VBM) at     -6.77052508 eV
  | Occupation number:      1.00000000
  | Spin channel:        2

  Lowest unoccupied state (CBM) at     0.30047182 eV
  | Occupation number:      0.00000000
  | Spin channel:        1

  Overall HOMO-LUMO gap:      7.07099690 eV.

  Total energy components:
  | Sum of eigenvalues            :          -0.71718138 Ha         -19.51549839 eV
  | XC energy correction          :          -0.55676158 Ha         -15.15025345 eV
  | XC potential correction       :           0.71898990 Ha          19.56471071 eV
  | Free-atom electrostatic energy:          -0.44703117 Ha         -12.16433705 eV
  | Hartree energy correction     :          -0.01824773 Ha          -0.49654606 eV
  | van der Waals energy corr.    :           0.00000000 Ha           0.00000000 eV
  | Entropy correction            :           0.00000000 Ha           0.00000000 eV
  | ---------------------------
  | Total energy                  :          -1.02023196 Ha         -27.76192425 eV
  | Total energy, T -> 0          :          -1.02023196 Ha         -27.76192425 eV  <-- do not rely on this value for anything but (periodic) metals
  | Electronic free energy        :          -1.02023196 Ha         -27.76192425 eV

  Derived energy quantities:
  | Kinetic energy                :           0.92304833 Ha          25.11742306 eV
  | Electrostatic energy          :          -1.38651871 Ha         -37.72909385 eV
  | Energy correction for multipole
  | error in Hartree potential    :          -0.00014581 Ha          -0.00396772 eV
  | Sum of eigenvalues per atom                           :          -9.75774920 eV
  | Total energy (T->0) per atom                          :         -13.88096212 eV  <-- do not rely on this value for anything but (periodic) metals
  | Electronic free energy per atom                       :         -13.88096212 eV

  Self-consistency convergence accuracy:
  | Change of charge/spin density : 0.1156E+00 0.2790E+00
  | Change of sum of eigenvalues  : -.4868E+01 eV
  | Change of total energy        : -.3423E+01 eV

  End self-consistency iteration #     2       :  max(cpu_time)    wall_clock(cpu1)
  | Time for this iteration                    :        0.025 s           0.024 s
  | Charge density update                      :        0.006 s           0.006 s
  | Density mixing                             :        0.001 s           0.001 s
  | Hartree multipole update                   :        0.001 s           0.001 s
  | Hartree multipole summation                :        0.004 s           0.005 s
  | Integration                                :        0.009 s           0.008 s
  | Solution of K.-S. eqns.                    :        0.001 s           0.002 s
  | Total energy evaluation                    :        0.000 s           0.001 s
------------------------------------------------------------

------------------------------------------------------------
          Begin self-consistency iteration #    3

  Date     :  20220120, Time     :  153044.860
------------------------------------------------------------
  Evaluating new KS density.
  Integration grid: deviation in total charge (<rho> - N_e) =   2.743099E-07
  | <rho_up-rho_dn> = N_up-N_dn =     -1.9367; <|rho_up-rho_dn|> =      1.9367
  Pulay mixing of updated and previous charge densities.

  Evaluating partitioned Hartree potential by multipole expansion.
  | Analytical far-field extrapolation by fixed multipoles:
  | Hartree multipole sum: apparent total charge =  -0.360311E-05
  Summing up the Hartree potential.
  Time summed over all CPUs for potential: real work        0.033 s, elapsed        0.034 s
  | RMS charge density error from multipole expansion :   0.529536E-03

  Integrating Hamiltonian matrix: batch-based integration.
  Time summed over all CPUs for integration: real work        0.068 s, elapsed        0.069 s

  Updating Kohn-Sham eigenvalues, eigenvectors, occupation numbers, and Fermi level.
  Solving generalized eigenproblem
  Solving real symmetric generalised eigenvalue problem by standard ScaLAPACK.
  Using Cholesky factor for transformation
  Using 1-stage real ELPA solver
  Solving real symmetric generalised eigenvalue problem by standard ScaLAPACK.
  Using Cholesky factor for transformation
  Using 1-stage real ELPA solver
  Determining occupation numbers for Kohn-Sham eigenstates.
  | Chemical potential (Fermi level) in eV                 : -.46178645E+01
  | Error in electron count due to remaining E_F inaccuracy: 0.00000000E+00
  | Maximum occupation number of highest empty state:  0.00E+00

  Current spin moment of the entire structure :
  | N = N_up - N_down :    0.00
  | S                 :    0.00
  | J                 :    1.00

  Highest occupied state (VBM) at     -5.85827139 eV
  | Occupation number:      1.00000000
  | Spin channel:        2

  Lowest unoccupied state (CBM) at     1.11502973 eV
  | Occupation number:      0.00000000
  | Spin channel:        1

  Overall HOMO-LUMO gap:      6.97330111 eV.

  Total energy components:
  | Sum of eigenvalues            :          -0.64757384 Ha         -17.62138071 eV
  | XC energy correction          :          -0.49274271 Ha         -13.40821121 eV
  | XC potential correction       :           0.63572452 Ha          17.29894446 eV
  | Free-atom electrostatic energy:          -0.44703117 Ha         -12.16433705 eV
  | Hartree energy correction     :          -0.01179534 Ha          -0.32096742 eV
  | van der Waals energy corr.    :           0.00000000 Ha           0.00000000 eV
  | Entropy correction            :           0.00000000 Ha           0.00000000 eV
  | ---------------------------
  | Total energy                  :          -0.96341853 Ha         -26.21595194 eV
  | Total energy, T -> 0          :          -0.96341853 Ha         -26.21595194 eV  <-- do not rely on this value for anything but (periodic) metals
  | Electronic free energy        :          -0.96341853 Ha         -26.21595194 eV

  Derived energy quantities:
  | Kinetic energy                :           0.90381470 Ha          24.59404938 eV
  | Electrostatic energy          :          -1.37449052 Ha         -37.40179011 eV
  | Energy correction for multipole
  | error in Hartree potential    :          -0.00013652 Ha          -0.00371503 eV
  | Sum of eigenvalues per atom                           :          -8.81069036 eV
  | Total energy (T->0) per atom                          :         -13.10797597 eV  <-- do not rely on this value for anything but (periodic) metals
  | Electronic free energy per atom                       :         -13.10797597 eV

  Self-consistency convergence accuracy:
  | Change of charge/spin density : 0.1200E+00 0.2659E+00
  | Change of sum of eigenvalues  : 0.1894E+01 eV
  | Change of total energy        : 0.1546E+01 eV

  End self-consistency iteration #     3       :  max(cpu_time)    wall_clock(cpu1)
  | Time for this iteration                    :        0.025 s           0.024 s
  | Charge density update                      :        0.007 s           0.006 s
  | Density mixing                             :        0.001 s           0.001 s
  | Hartree multipole update                   :        0.001 s           0.001 s
  | Hartree multipole summation                :        0.004 s           0.005 s
  | Integration                                :        0.009 s           0.009 s
  | Solution of K.-S. eqns.                    :        0.001 s           0.001 s
  | Total energy evaluation                    :        0.000 s           0.000 s
------------------------------------------------------------

------------------------------------------------------------
          Begin self-consistency iteration #    4

  Date     :  20220120, Time     :  153044.889
------------------------------------------------------------
  Evaluating new KS density.
  Integration grid: deviation in total charge (<rho> - N_e) =   2.761467E-07
  | <rho_up-rho_dn> = N_up-N_dn =     -1.9541; <|rho_up-rho_dn|> =      1.9541
  Pulay mixing of updated and previous charge densities.

  Evaluating partitioned Hartree potential by multipole expansion.
  | Analytical far-field extrapolation by fixed multipoles:
  | Hartree multipole sum: apparent total charge =  -0.363113E-05
  Summing up the Hartree potential.
  Time summed over all CPUs for potential: real work        0.033 s, elapsed        0.034 s
  | RMS charge density error from multipole expansion :   0.470282E-03

  Integrating Hamiltonian matrix: batch-based integration.
  Time summed over all CPUs for integration: real work        0.068 s, elapsed        0.070 s

  Updating Kohn-Sham eigenvalues, eigenvectors, occupation numbers, and Fermi level.
  Solving generalized eigenproblem
  Solving real symmetric generalised eigenvalue problem by standard ScaLAPACK.
  Using Cholesky factor for transformation
  Using 1-stage real ELPA solver
  Solving real symmetric generalised eigenvalue problem by standard ScaLAPACK.
  Using Cholesky factor for transformation
  Using 1-stage real ELPA solver
  Determining occupation numbers for Kohn-Sham eigenstates.
  | Chemical potential (Fermi level) in eV                 : -.28871698E+01
  | Error in electron count due to remaining E_F inaccuracy: 0.00000000E+00
  | Maximum occupation number of highest empty state:  0.00E+00

  Current spin moment of the entire structure :
  | N = N_up - N_down :    0.00
  | S                 :    0.00
  | J                 :    1.00

  Highest occupied state (VBM) at     -5.49765807 eV
  | Occupation number:      1.00000000
  | Spin channel:        2

  Lowest unoccupied state (CBM) at     0.90770434 eV
  | Occupation number:      0.00000000
  | Spin channel:        1

  Overall HOMO-LUMO gap:      6.40536241 eV.

  Total energy components:
  | Sum of eigenvalues            :          -0.54889485 Ha         -14.93618880 eV
  | XC energy correction          :          -0.40749523 Ha         -11.08850925 eV
  | XC potential correction       :           0.52267212 Ha          14.22263194 eV
  | Free-atom electrostatic energy:          -0.44703117 Ha         -12.16433705 eV
  | Hartree energy correction     :          -0.00569428 Ha          -0.15494917 eV
  | van der Waals energy corr.    :           0.00000000 Ha           0.00000000 eV
  | Entropy correction            :           0.00000000 Ha           0.00000000 eV
  | ---------------------------
  | Total energy                  :          -0.88644341 Ha         -24.12135233 eV
  | Total energy, T -> 0          :          -0.88644341 Ha         -24.12135233 eV  <-- do not rely on this value for anything but (periodic) metals
  | Electronic free energy        :          -0.88644341 Ha         -24.12135233 eV

  Derived energy quantities:
  | Kinetic energy                :           0.87801277 Ha          23.89194307 eV
  | Electrostatic energy          :          -1.35696095 Ha         -36.92478615 eV
  | Energy correction for multipole
  | error in Hartree potential    :          -0.00012092 Ha          -0.00329035 eV
  | Sum of eigenvalues per atom                           :          -7.46809440 eV
  | Total energy (T->0) per atom                          :         -12.06067617 eV  <-- do not rely on this value for anything but (periodic) metals
  | Electronic free energy per atom                       :         -12.06067617 eV

  Self-consistency convergence accuracy:
  | Change of charge/spin density : 0.1117E+00 0.2640E+00
  | Change of sum of eigenvalues  : 0.2685E+01 eV
  | Change of total energy        : 0.2095E+01 eV

  End self-consistency iteration #     4       :  max(cpu_time)    wall_clock(cpu1)
  | Time for this iteration                    :        0.025 s           0.024 s
  | Charge density update                      :        0.007 s           0.006 s
  | Density mixing                             :        0.001 s           0.001 s
  | Hartree multipole update                   :        0.001 s           0.001 s
  | Hartree multipole summation                :        0.004 s           0.005 s
  | Integration                                :        0.009 s           0.009 s
  | Solution of K.-S. eqns.                    :        0.001 s           0.001 s
  | Total energy evaluation                    :        0.000 s           0.000 s
------------------------------------------------------------

------------------------------------------------------------
          Begin self-consistency iteration #    5

  Date     :  20220120, Time     :  153044.915
------------------------------------------------------------
  Evaluating new KS density.
  Integration grid: deviation in total charge (<rho> - N_e) =   2.709845E-07
  | <rho_up-rho_dn> = N_up-N_dn =     -1.9003; <|rho_up-rho_dn|> =      1.9003
  Pulay mixing of updated and previous charge densities.

  Evaluating partitioned Hartree potential by multipole expansion.
  | Analytical far-field extrapolation by fixed multipoles:
  | Hartree multipole sum: apparent total charge =  -0.363598E-05
  Summing up the Hartree potential.
  Time summed over all CPUs for potential: real work        0.033 s, elapsed        0.034 s
  | RMS charge density error from multipole expansion :   0.528209E-03

  Integrating Hamiltonian matrix: batch-based integration.
  Time summed over all CPUs for integration: real work        0.066 s, elapsed        0.068 s

  Updating Kohn-Sham eigenvalues, eigenvectors, occupation numbers, and Fermi level.
  Solving generalized eigenproblem
  Solving real symmetric generalised eigenvalue problem by standard ScaLAPACK.
  Using Cholesky factor for transformation
  Using 1-stage real ELPA solver
  Solving real symmetric generalised eigenvalue problem by standard ScaLAPACK.
  Using Cholesky factor for transformation
  Using 1-stage real ELPA solver
  Determining occupation numbers for Kohn-Sham eigenstates.
  | Chemical potential (Fermi level) in eV                 : -.14917895E+01
  | Error in electron count due to remaining E_F inaccuracy: 0.00000000E+00
  | Maximum occupation number of highest empty state:  0.00E+00

  Current spin moment of the entire structure :
  | N = N_up - N_down :    0.00
  | S                 :    0.00
  | J                 :    1.00

  Highest occupied state (VBM) at     -4.40803707 eV
  | Occupation number:      1.00000000
  | Spin channel:        2

  Lowest unoccupied state (CBM) at     2.00991768 eV
  | Occupation number:      0.00000000
  | Spin channel:        1

  Overall HOMO-LUMO gap:      6.41795475 eV.

  Total energy components:
  | Sum of eigenvalues            :          -0.45251183 Ha         -12.31347345 eV
  | XC energy correction          :          -0.29452664 Ha          -8.01447773 eV
  | XC potential correction       :           0.37751910 Ha          10.27281730 eV
  | Free-atom electrostatic energy:          -0.44703117 Ha         -12.16433705 eV
  | Hartree energy correction     :          -0.01677677 Ha          -0.45651918 eV
  | van der Waals energy corr.    :           0.00000000 Ha           0.00000000 eV
  | Entropy correction            :           0.00000000 Ha           0.00000000 eV
  | ---------------------------
  | Total energy                  :          -0.83332732 Ha         -22.67599012 eV
  | Total energy, T -> 0          :          -0.83332732 Ha         -22.67599012 eV  <-- do not rely on this value for anything but (periodic) metals
  | Electronic free energy        :          -0.83332732 Ha         -22.67599012 eV

  Derived energy quantities:
  | Kinetic energy                :           0.84217933 Ha          22.91686566 eV
  | Electrostatic energy          :          -1.38098001 Ha         -37.57837804 eV
  | Energy correction for multipole
  | error in Hartree potential    :          -0.00014317 Ha          -0.00389581 eV
  | Sum of eigenvalues per atom                           :          -6.15673672 eV
  | Total energy (T->0) per atom                          :         -11.33799506 eV  <-- do not rely on this value for anything but (periodic) metals
  | Electronic free energy per atom                       :         -11.33799506 eV

  Self-consistency convergence accuracy:
  | Change of charge/spin density : 0.7536E-01 0.2791E+00
  | Change of sum of eigenvalues  : 0.2623E+01 eV
  | Change of total energy        : 0.1445E+01 eV

  End self-consistency iteration #     5       :  max(cpu_time)    wall_clock(cpu1)
  | Time for this iteration                    :        0.025 s           0.024 s
  | Charge density update                      :        0.006 s           0.006 s
  | Density mixing                             :        0.001 s           0.001 s
  | Hartree multipole update                   :        0.001 s           0.002 s
  | Hartree multipole summation                :        0.004 s           0.004 s
  | Integration                                :        0.009 s           0.009 s
  | Solution of K.-S. eqns.                    :        0.001 s           0.001 s
  | Total energy evaluation                    :        0.000 s           0.000 s
------------------------------------------------------------

------------------------------------------------------------
          Begin self-consistency iteration #    6

  Date     :  20220120, Time     :  153044.941
------------------------------------------------------------
  Evaluating new KS density.
  Integration grid: deviation in total charge (<rho> - N_e) =   2.796091E-07
  | <rho_up-rho_dn> = N_up-N_dn =     -1.9838; <|rho_up-rho_dn|> =      1.9838
  Pulay mixing of updated and previous charge densities.

  Evaluating partitioned Hartree potential by multipole expansion.
  | Analytical far-field extrapolation by fixed multipoles:
  | Hartree multipole sum: apparent total charge =  -0.373753E-05
  Summing up the Hartree potential.
  Time summed over all CPUs for potential: real work        0.033 s, elapsed        0.034 s
  | RMS charge density error from multipole expansion :   0.588320E-03

  Integrating Hamiltonian matrix: batch-based integration.
  Time summed over all CPUs for integration: real work        0.067 s, elapsed        0.069 s

  Updating Kohn-Sham eigenvalues, eigenvectors, occupation numbers, and Fermi level.
  Solving generalized eigenproblem
  Solving real symmetric generalised eigenvalue problem by standard ScaLAPACK.
  Using Cholesky factor for transformation
  Using 1-stage real ELPA solver
  Solving real symmetric generalised eigenvalue problem by standard ScaLAPACK.
  Using Cholesky factor for transformation
  Using 1-stage real ELPA solver
  Determining occupation numbers for Kohn-Sham eigenstates.
  | Chemical potential (Fermi level) in eV                 : -.26076765E+01
  | Error in electron count due to remaining E_F inaccuracy: 0.00000000E+00
  | Maximum occupation number of highest empty state:  0.00E+00

  Current spin moment of the entire structure :
  | N = N_up - N_down :    0.00
  | S                 :    0.00
  | J                 :    1.00

  Highest occupied state (VBM) at     -5.37257799 eV
  | Occupation number:      1.00000000
  | Spin channel:        2

  Lowest unoccupied state (CBM) at     0.99642291 eV
  | Occupation number:      0.00000000
  | Spin channel:        1

  Overall HOMO-LUMO gap:      6.36900089 eV.

  Total energy components:
  | Sum of eigenvalues            :          -0.53174161 Ha         -14.46942536 eV
  | XC energy correction          :          -0.40136476 Ha         -10.92169083 eV
  | XC potential correction       :           0.51463182 Ha          14.00384429 eV
  | Free-atom electrostatic energy:          -0.44703117 Ha         -12.16433705 eV
  | Hartree energy correction     :          -0.01063013 Ha          -0.28926049 eV
  | van der Waals energy corr.    :           0.00000000 Ha           0.00000000 eV
  | Entropy correction            :           0.00000000 Ha           0.00000000 eV
  | ---------------------------
  | Total energy                  :          -0.87613585 Ha         -23.84086944 eV
  | Total energy, T -> 0          :          -0.87613585 Ha         -23.84086944 eV  <-- do not rely on this value for anything but (periodic) metals
  | Electronic free energy        :          -0.87613585 Ha         -23.84086944 eV

  Derived energy quantities:
  | Kinetic energy                :           0.88115488 Ha          23.97744431 eV
  | Electrostatic energy          :          -1.35592597 Ha         -36.89662293 eV
  | Energy correction for multipole
  | error in Hartree potential    :          -0.00014597 Ha          -0.00397193 eV
  | Sum of eigenvalues per atom                           :          -7.23471268 eV
  | Total energy (T->0) per atom                          :         -11.92043472 eV  <-- do not rely on this value for anything but (periodic) metals
  | Electronic free energy per atom                       :         -11.92043472 eV

  Self-consistency convergence accuracy:
  | Change of charge/spin density : 0.9472E-01 0.2907E+00
  | Change of sum of eigenvalues  : -.2156E+01 eV
  | Change of total energy        : -.1165E+01 eV

  End self-consistency iteration #     6       :  max(cpu_time)    wall_clock(cpu1)
  | Time for this iteration                    :        0.025 s           0.025 s
  | Charge density update                      :        0.006 s           0.006 s
  | Density mixing                             :        0.002 s           0.001 s
  | Hartree multipole update                   :        0.001 s           0.002 s
  | Hartree multipole summation                :        0.004 s           0.004 s
  | Integration                                :        0.009 s           0.009 s
  | Solution of K.-S. eqns.                    :        0.001 s           0.002 s
  | Total energy evaluation                    :        0.000 s           0.001 s
------------------------------------------------------------

------------------------------------------------------------
          Begin self-consistency iteration #    7

  Date     :  20220120, Time     :  153044.969
------------------------------------------------------------
  Evaluating new KS density.
  Integration grid: deviation in total charge (<rho> - N_e) =   2.713861E-07
  | <rho_up-rho_dn> = N_up-N_dn =     -1.9188; <|rho_up-rho_dn|> =      1.9188
  Pulay mixing of updated and previous charge densities.

  Evaluating partitioned Hartree potential by multipole expansion.
  | Analytical far-field extrapolation by fixed multipoles:
  | Hartree multipole sum: apparent total charge =  -0.369343E-05
  Summing up the Hartree potential.
  Time summed over all CPUs for potential: real work        0.033 s, elapsed        0.034 s
  | RMS charge density error from multipole expansion :   0.535319E-03

  Integrating Hamiltonian matrix: batch-based integration.
  Time summed over all CPUs for integration: real work        0.067 s, elapsed        0.069 s

  Updating Kohn-Sham eigenvalues, eigenvectors, occupation numbers, and Fermi level.
  Solving generalized eigenproblem
  Solving real symmetric generalised eigenvalue problem by standard ScaLAPACK.
  Using Cholesky factor for transformation
  Using 1-stage real ELPA solver
  Solving real symmetric generalised eigenvalue problem by standard ScaLAPACK.
  Using Cholesky factor for transformation
  Using 1-stage real ELPA solver
  Determining occupation numbers for Kohn-Sham eigenstates.
  | Chemical potential (Fermi level) in eV                 : -.25384032E+01
  | Error in electron count due to remaining E_F inaccuracy: 0.00000000E+00
  | Maximum occupation number of highest empty state:  0.00E+00

  Current spin moment of the entire structure :
  | N = N_up - N_down :    0.00
  | S                 :    0.00
  | J                 :    1.00

  Highest occupied state (VBM) at     -5.28150111 eV
  | Occupation number:      1.00000000
  | Spin channel:        2

  Lowest unoccupied state (CBM) at     1.25003341 eV
  | Occupation number:      0.00000000
  | Spin channel:        1

  Overall HOMO-LUMO gap:      6.53153452 eV.

  Total energy components:
  | Sum of eigenvalues            :          -0.52703001 Ha         -14.34121619 eV
  | XC energy correction          :          -0.38749919 Ha         -10.54438951 eV
  | XC potential correction       :           0.49687719 Ha          13.52071620 eV
  | Free-atom electrostatic energy:          -0.44703117 Ha         -12.16433705 eV
  | Hartree energy correction     :          -0.01084119 Ha          -0.29500391 eV
  | van der Waals energy corr.    :           0.00000000 Ha           0.00000000 eV
  | Entropy correction            :           0.00000000 Ha           0.00000000 eV
  | ---------------------------
  | Total energy                  :          -0.87552438 Ha         -23.82423046 eV
  | Total energy, T -> 0          :          -0.87552438 Ha         -23.82423046 eV  <-- do not rely on this value for anything but (periodic) metals
  | Electronic free energy        :          -0.87552438 Ha         -23.82423046 eV

  Derived energy quantities:
  | Kinetic energy                :           0.87221034 Ha          23.73405093 eV
  | Electrostatic energy          :          -1.36023552 Ha         -37.01389188 eV
  | Energy correction for multipole
  | error in Hartree potential    :          -0.00013741 Ha          -0.00373920 eV
  | Sum of eigenvalues per atom                           :          -7.17060809 eV
  | Total energy (T->0) per atom                          :         -11.91211523 eV  <-- do not rely on this value for anything but (periodic) metals
  | Electronic free energy per atom                       :         -11.91211523 eV

  Self-consistency convergence accuracy:
  | Change of charge/spin density : 0.7471E-01 0.2835E+00
  | Change of sum of eigenvalues  : 0.1282E+00 eV
  | Change of total energy        : 0.1664E-01 eV

  End self-consistency iteration #     7       :  max(cpu_time)    wall_clock(cpu1)
  | Time for this iteration                    :        0.027 s           0.025 s
  | Charge density update                      :        0.007 s           0.006 s
  | Density mixing                             :        0.002 s           0.002 s
  | Hartree multipole update                   :        0.001 s           0.001 s
  | Hartree multipole summation                :        0.005 s           0.005 s
  | Integration                                :        0.009 s           0.009 s
  | Solution of K.-S. eqns.                    :        0.001 s           0.001 s
  | Total energy evaluation                    :        0.000 s           0.000 s
------------------------------------------------------------

------------------------------------------------------------
          Begin self-consistency iteration #    8

  Date     :  20220120, Time     :  153044.999
------------------------------------------------------------
  Evaluating new KS density.
  Integration grid: deviation in total charge (<rho> - N_e) =   2.720199E-07
  | <rho_up-rho_dn> = N_up-N_dn =     -1.9202; <|rho_up-rho_dn|> =      1.9202
  Pulay mixing of updated and previous charge densities.

  Evaluating partitioned Hartree potential by multipole expansion.
  | Analytical far-field extrapolation by fixed multipoles:
  | Hartree multipole sum: apparent total charge =  -0.384426E-05
  Summing up the Hartree potential.
  Time summed over all CPUs for potential: real work        0.033 s, elapsed        0.034 s
  | RMS charge density error from multipole expansion :   0.666973E-03

  Integrating Hamiltonian matrix: batch-based integration.
  Time summed over all CPUs for integration: real work        0.065 s, elapsed        0.066 s

  Updating Kohn-Sham eigenvalues, eigenvectors, occupation numbers, and Fermi level.
  Solving generalized eigenproblem
  Solving real symmetric generalised eigenvalue problem by standard ScaLAPACK.
  Using Cholesky factor for transformation
  Using 1-stage real ELPA solver
  Solving real symmetric generalised eigenvalue problem by standard ScaLAPACK.
  Using Cholesky factor for transformation
  Using 1-stage real ELPA solver
  Determining occupation numbers for Kohn-Sham eigenstates.
  | Chemical potential (Fermi level) in eV                 : -.27470057E+01
  | Error in electron count due to remaining E_F inaccuracy: 0.00000000E+00
  | Maximum occupation number of highest empty state:  0.00E+00

  Current spin moment of the entire structure :
  | N = N_up - N_down :    0.00
  | S                 :    0.00
  | J                 :    1.00

  Highest occupied state (VBM) at     -5.75815301 eV
  | Occupation number:      1.00000000
  | Spin channel:        2

  Lowest unoccupied state (CBM) at     1.90688153 eV
  | Occupation number:      0.00000000
  | Spin channel:        1

  Overall HOMO-LUMO gap:      7.66503453 eV.

  Total energy components:
  | Sum of eigenvalues            :          -0.55763591 Ha         -15.17404524 eV
  | XC energy correction          :          -0.40061895 Ha         -10.90139633 eV
  | XC potential correction       :           0.51582276 Ha          14.03625154 eV
  | Free-atom electrostatic energy:          -0.44703117 Ha         -12.16433705 eV
  | Hartree energy correction     :          -0.03173497 Ha          -0.86355241 eV
  | van der Waals energy corr.    :           0.00000000 Ha           0.00000000 eV
  | Entropy correction            :           0.00000000 Ha           0.00000000 eV
  | ---------------------------
  | Total energy                  :          -0.92119824 Ha         -25.06707949 eV
  | Total energy, T -> 0          :          -0.92119824 Ha         -25.06707949 eV  <-- do not rely on this value for anything but (periodic) metals
  | Electronic free energy        :          -0.92119824 Ha         -25.06707949 eV

  Derived energy quantities:
  | Kinetic energy                :           0.83960799 Ha          22.84689580 eV
  | Electrostatic energy          :          -1.36018728 Ha         -37.01257896 eV
  | Energy correction for multipole
  | error in Hartree potential    :          -0.00016773 Ha          -0.00456421 eV
  | Sum of eigenvalues per atom                           :          -7.58702262 eV
  | Total energy (T->0) per atom                          :         -12.53353975 eV  <-- do not rely on this value for anything but (periodic) metals
  | Electronic free energy per atom                       :         -12.53353975 eV

  Self-consistency convergence accuracy:
  | Change of charge/spin density : 0.7901E-01 0.2827E+00
  | Change of sum of eigenvalues  : -.8328E+00 eV
  | Change of total energy        : -.1243E+01 eV

  End self-consistency iteration #     8       :  max(cpu_time)    wall_clock(cpu1)
  | Time for this iteration                    :        0.026 s           0.025 s
  | Charge density update                      :        0.007 s           0.006 s
  | Density mixing                             :        0.002 s           0.002 s
  | Hartree multipole update                   :        0.001 s           0.001 s
  | Hartree multipole summation                :        0.005 s           0.005 s
  | Integration                                :        0.008 s           0.008 s
  | Solution of K.-S. eqns.                    :        0.001 s           0.002 s
  | Total energy evaluation                    :        0.000 s           0.001 s
------------------------------------------------------------

------------------------------------------------------------
          Begin self-consistency iteration #    9

  Date     :  20220120, Time     :  153045.029
------------------------------------------------------------
  Evaluating new KS density.
  Integration grid: deviation in total charge (<rho> - N_e) =   2.648765E-07
  | <rho_up-rho_dn> = N_up-N_dn =     -1.9137; <|rho_up-rho_dn|> =      1.9137
  Pulay mixing of updated and previous charge densities.

  Evaluating partitioned Hartree potential by multipole expansion.
  | Analytical far-field extrapolation by fixed multipoles:
  | Hartree multipole sum: apparent total charge =  -0.400695E-05
  Summing up the Hartree potential.
  Time summed over all CPUs for potential: real work        0.033 s, elapsed        0.034 s
  | RMS charge density error from multipole expansion :   0.927114E-03

  Integrating Hamiltonian matrix: batch-based integration.
  Time summed over all CPUs for integration: real work        0.066 s, elapsed        0.068 s

  Updating Kohn-Sham eigenvalues, eigenvectors, occupation numbers, and Fermi level.
  Solving generalized eigenproblem
  Solving real symmetric generalised eigenvalue problem by standard ScaLAPACK.
  Using Cholesky factor for transformation
  Using 1-stage real ELPA solver
  Solving real symmetric generalised eigenvalue problem by standard ScaLAPACK.
  Using Cholesky factor for transformation
  Using 1-stage real ELPA solver
  Determining occupation numbers for Kohn-Sham eigenstates.
  | Chemical potential (Fermi level) in eV                 : -.28069581E+01
  | Error in electron count due to remaining E_F inaccuracy: 0.00000000E+00
  | Maximum occupation number of highest empty state:  0.00E+00

  Current spin moment of the entire structure :
  | N = N_up - N_down :    0.00
  | S                 :    0.00
  | J                 :    1.00

  Highest occupied state (VBM) at     -6.79081510 eV
  | Occupation number:      1.00000000
  | Spin channel:        2

  Lowest unoccupied state (CBM) at     1.64682591 eV
  | Occupation number:      0.00000000
  | Spin channel:        1

  Overall HOMO-LUMO gap:      8.43764101 eV.

  Total energy components:
  | Sum of eigenvalues            :          -0.58983684 Ha         -16.05027703 eV
  | XC energy correction          :          -0.49104861 Ha         -13.36211251 eV
  | XC potential correction       :           0.63310788 Ha          17.22774195 eV
  | Free-atom electrostatic energy:          -0.44703117 Ha         -12.16433705 eV
  | Hartree energy correction     :          -0.06817226 Ha          -1.85506171 eV
  | van der Waals energy corr.    :           0.00000000 Ha           0.00000000 eV
  | Entropy correction            :           0.00000000 Ha           0.00000000 eV
  | ---------------------------
  | Total energy                  :          -0.96298100 Ha         -26.20404634 eV
  | Total energy, T -> 0          :          -0.96298100 Ha         -26.20404634 eV  <-- do not rely on this value for anything but (periodic) metals
  | Electronic free energy        :          -0.96298100 Ha         -26.20404634 eV

  Derived energy quantities:
  | Kinetic energy                :           0.77330657 Ha          21.04274241 eV
  | Electrostatic energy          :          -1.24523896 Ha         -33.88467625 eV
  | Energy correction for multipole
  | error in Hartree potential    :           0.00002214 Ha           0.00060243 eV
  | Sum of eigenvalues per atom                           :          -8.02513851 eV
  | Total energy (T->0) per atom                          :         -13.10202317 eV  <-- do not rely on this value for anything but (periodic) metals
  | Electronic free energy per atom                       :         -13.10202317 eV

  Self-consistency convergence accuracy:
  | Change of charge/spin density : 0.1019E+00 0.2773E+00
  | Change of sum of eigenvalues  : -.8762E+00 eV
  | Change of total energy        : -.1137E+01 eV

  End self-consistency iteration #     9       :  max(cpu_time)    wall_clock(cpu1)
  | Time for this iteration                    :        0.028 s           0.024 s
  | Charge density update                      :        0.009 s           0.005 s
  | Density mixing                             :        0.002 s           0.002 s
  | Hartree multipole update                   :        0.001 s           0.002 s
  | Hartree multipole summation                :        0.004 s           0.004 s
  | Integration                                :        0.009 s           0.009 s
  | Solution of K.-S. eqns.                    :        0.001 s           0.001 s
  | Total energy evaluation                    :        0.000 s           0.000 s
------------------------------------------------------------

------------------------------------------------------------
          Begin self-consistency iteration #   10

  Date     :  20220120, Time     :  153045.058
------------------------------------------------------------
  Evaluating new KS density.
  Integration grid: deviation in total charge (<rho> - N_e) =   2.061913E-07
  | <rho_up-rho_dn> = N_up-N_dn =     -1.5010; <|rho_up-rho_dn|> =      1.5010
  Pulay mixing of updated and previous charge densities.

  Evaluating partitioned Hartree potential by multipole expansion.
  | Analytical far-field extrapolation by fixed multipoles:
  | Hartree multipole sum: apparent total charge =  -0.485557E-07
  Summing up the Hartree potential.
  Time summed over all CPUs for potential: real work        0.033 s, elapsed        0.034 s
  | RMS charge density error from multipole expansion :   0.110714E-01

  Integrating Hamiltonian matrix: batch-based integration.
  Time summed over all CPUs for integration: real work        0.070 s, elapsed        0.072 s

  Updating Kohn-Sham eigenvalues, eigenvectors, occupation numbers, and Fermi level.
  Solving generalized eigenproblem
  Solving real symmetric generalised eigenvalue problem by standard ScaLAPACK.
  Using Cholesky factor for transformation
  Using 1-stage real ELPA solver
  Solving real symmetric generalised eigenvalue problem by standard ScaLAPACK.
  Using Cholesky factor for transformation
  Using 1-stage real ELPA solver
  Determining occupation numbers for Kohn-Sham eigenstates.
  | Chemical potential (Fermi level) in eV                 : -.53960628E+01
  | Error in electron count due to remaining E_F inaccuracy: 0.00000000E+00
  | Maximum occupation number of highest empty state:  0.00E+00

  Current spin moment of the entire structure :
  | N = N_up - N_down :    0.00
  | S                 :    0.00
  | J                 :    1.00

  Highest occupied state (VBM) at     -6.33249417 eV
  | Occupation number:      1.00000000
  | Spin channel:        2

  Lowest unoccupied state (CBM) at    -1.13662577 eV
  | Occupation number:      0.00000000
  | Spin channel:        2

  Overall HOMO-LUMO gap:      5.19586839 eV.

  Total energy components:
  | Sum of eigenvalues            :          -0.50527167 Ha         -13.74914159 eV
  | XC energy correction          :          -1.32818338 Ha         -36.14170868 eV
  | XC potential correction       :           1.71664532 Ha          46.71229597 eV
  | Free-atom electrostatic energy:          -0.44703117 Ha         -12.16433705 eV
  | Hartree energy correction     :          -0.96530751 Ha         -26.26735386 eV
  | van der Waals energy corr.    :           0.00000000 Ha           0.00000000 eV
  | Entropy correction            :           0.00000000 Ha           0.00000000 eV
  | ---------------------------
  | Total energy                  :          -1.52914841 Ha         -41.61024522 eV
  | Total energy, T -> 0          :          -1.52914841 Ha         -41.61024522 eV  <-- do not rely on this value for anything but (periodic) metals
  | Electronic free energy        :          -1.52914841 Ha         -41.61024522 eV

  Derived energy quantities:
  | Kinetic energy                :           0.21629357 Ha           5.88564750 eV
  | Electrostatic energy          :          -0.41725859 Ha         -11.35418404 eV
  | Energy correction for multipole
  | error in Hartree potential    :           0.00166903 Ha           0.04541653 eV
  | Sum of eigenvalues per atom                           :          -6.87457080 eV
  | Total energy (T->0) per atom                          :         -20.80512261 eV  <-- do not rely on this value for anything but (periodic) metals
  | Electronic free energy per atom                       :         -20.80512261 eV

  Self-consistency convergence accuracy:
  | Change of charge/spin density : 0.7749E-01 0.2292E+00
  | Change of sum of eigenvalues  : 0.2301E+01 eV
  | Change of total energy        : -.1541E+02 eV

  End self-consistency iteration #    10       :  max(cpu_time)    wall_clock(cpu1)
  | Time for this iteration                    :        0.029 s           0.025 s
  | Charge density update                      :        0.010 s           0.006 s
  | Density mixing                             :        0.002 s           0.002 s
  | Hartree multipole update                   :        0.001 s           0.001 s
  | Hartree multipole summation                :        0.004 s           0.005 s
  | Integration                                :        0.009 s           0.009 s
  | Solution of K.-S. eqns.                    :        0.001 s           0.001 s
  | Total energy evaluation                    :        0.000 s           0.000 s
------------------------------------------------------------

------------------------------------------------------------
          Begin self-consistency iteration #   11

  Date     :  20220120, Time     :  153045.086
------------------------------------------------------------
  Evaluating new KS density.
  Integration grid: deviation in total charge (<rho> - N_e) =   3.976545E-08
  | <rho_up-rho_dn> = N_up-N_dn =     -0.0118; <|rho_up-rho_dn|> =      1.2979
  Pulay mixing of updated and previous charge densities.

  Evaluating partitioned Hartree potential by multipole expansion.
  | Analytical far-field extrapolation by fixed multipoles:
  | Hartree multipole sum: apparent total charge =  -0.620667E-05
  Summing up the Hartree potential.
  Time summed over all CPUs for potential: real work        0.033 s, elapsed        0.034 s
  | RMS charge density error from multipole expansion :   0.184779E-02

  Integrating Hamiltonian matrix: batch-based integration.
  Time summed over all CPUs for integration: real work        0.066 s, elapsed        0.069 s

  Updating Kohn-Sham eigenvalues, eigenvectors, occupation numbers, and Fermi level.
  Solving generalized eigenproblem
  Solving real symmetric generalised eigenvalue problem by standard ScaLAPACK.
  Using Cholesky factor for transformation
  Using 1-stage real ELPA solver
  Solving real symmetric generalised eigenvalue problem by standard ScaLAPACK.
  Using Cholesky factor for transformation
  Using 1-stage real ELPA solver
  Determining occupation numbers for Kohn-Sham eigenstates.
  | Chemical potential (Fermi level) in eV                 : -.10678125E+02
  | Error in electron count due to remaining E_F inaccuracy: 0.00000000E+00
  | Maximum occupation number of highest empty state:  0.00E+00

  Current spin moment of the entire structure :
  | N = N_up - N_down :    0.00
  | S                 :    0.00
  | J                 :    1.00

  Highest occupied state (VBM) at    -12.34890366 eV
  | Occupation number:      1.00000000
  | Spin channel:        2

  Lowest unoccupied state (CBM) at    -1.95864292 eV
  | Occupation number:      0.00000000
  | Spin channel:        1

  Overall HOMO-LUMO gap:     10.39026075 eV.

  Total energy components:
  | Sum of eigenvalues            :          -0.92645280 Ha         -25.21006341 eV
  | XC energy correction          :          -0.62759340 Ha         -17.07768545 eV
  | XC potential correction       :           0.80610294 Ha          21.93517694 eV
  | Free-atom electrostatic energy:          -0.44703117 Ha         -12.16433705 eV
  | Hartree energy correction     :           0.08825595 Ha           2.40156663 eV
  | van der Waals energy corr.    :           0.00000000 Ha           0.00000000 eV
  | Entropy correction            :           0.00000000 Ha           0.00000000 eV
  | ---------------------------
  | Total energy                  :          -1.10671849 Ha         -30.11534234 eV
  | Total energy, T -> 0          :          -1.10671849 Ha         -30.11534234 eV  <-- do not rely on this value for anything but (periodic) metals
  | Electronic free energy        :          -1.10671849 Ha         -30.11534234 eV

  Derived energy quantities:
  | Kinetic energy                :          -0.16077136 Ha          -4.37481138 eV
  | Electrostatic energy          :          -0.31835372 Ha          -8.66284550 eV
  | Energy correction for multipole
  | error in Hartree potential    :           0.00038874 Ha           0.01057818 eV
  | Sum of eigenvalues per atom                           :         -12.60503170 eV
  | Total energy (T->0) per atom                          :         -15.05767117 eV  <-- do not rely on this value for anything but (periodic) metals
  | Electronic free energy per atom                       :         -15.05767117 eV

[...]
  | Change of sum of eigenvalues  : 0.1269E-03 eV
  | Change of total energy        : 0.9644E-09 eV

  End self-consistency iteration #    26       :  max(cpu_time)    wall_clock(cpu1)
  | Time for this iteration                    :        0.027 s           0.026 s
  | Charge density update                      :        0.007 s           0.006 s
  | Density mixing                             :        0.002 s           0.002 s
  | Hartree multipole update                   :        0.001 s           0.001 s
  | Hartree multipole summation                :        0.004 s           0.005 s
  | Integration                                :        0.010 s           0.009 s
  | Solution of K.-S. eqns.                    :        0.001 s           0.002 s
  | Total energy evaluation                    :        0.000 s           0.001 s
------------------------------------------------------------

------------------------------------------------------------
          Begin self-consistency iteration #   27

  Date     :  20220120, Time     :  153045.560
------------------------------------------------------------
  Evaluating new KS density.
  Integration grid: deviation in total charge (<rho> - N_e) =   2.342126E-12
  | <rho_up-rho_dn> = N_up-N_dn =      0.0000; <|rho_up-rho_dn|> =      0.0000
  Pulay mixing of updated and previous charge densities.

  Evaluating partitioned Hartree potential by multipole expansion.
  | Analytical far-field extrapolation by fixed multipoles:
  | Hartree multipole sum: apparent total charge =  -0.193826E-06
  Summing up the Hartree potential.
  Time summed over all CPUs for potential: real work        0.033 s, elapsed        0.034 s
  | RMS charge density error from multipole expansion :   0.854209E-03

  Integrating Hamiltonian matrix: batch-based integration.
  Time summed over all CPUs for integration: real work        0.075 s, elapsed        0.076 s

  Updating Kohn-Sham eigenvalues, eigenvectors, occupation numbers, and Fermi level.
  Solving generalized eigenproblem
  Solving real symmetric generalised eigenvalue problem by standard ScaLAPACK.
  Using Cholesky factor for transformation
  Using 1-stage real ELPA solver
  Solving real symmetric generalised eigenvalue problem by standard ScaLAPACK.
  Using Cholesky factor for transformation
  Using 1-stage real ELPA solver
  Determining occupation numbers for Kohn-Sham eigenstates.
  | Chemical potential (Fermi level) in eV                 : -.80494694E+01
  | Error in electron count due to remaining E_F inaccuracy: 0.00000000E+00
  | Maximum occupation number of highest empty state:  0.00E+00

  Current spin moment of the entire structure :
  | N = N_up - N_down :    0.00
  | S                 :    0.00
  | J                 :    1.00

  Highest occupied state (VBM) at     -9.58009067 eV
  | Occupation number:      1.00000000
  | Spin channel:        1

  Lowest unoccupied state (CBM) at    -0.32038444 eV
  | Occupation number:      0.00000000
  | Spin channel:        2

  Overall HOMO-LUMO gap:      9.25970622 eV.

  Total energy components:
  | Sum of eigenvalues            :          -0.70412380 Ha         -19.16018355 eV
  | XC energy correction          :          -0.63796284 Ha         -17.35985221 eV
  | XC potential correction       :           0.81893991 Ha          22.28448872 eV
  | Free-atom electrostatic energy:          -0.44703117 Ha         -12.16433705 eV
  | Hartree energy correction     :          -0.18213158 Ha          -4.95605240 eV
  | van der Waals energy corr.    :           0.00000000 Ha           0.00000000 eV
  | Entropy correction            :           0.00000000 Ha           0.00000000 eV
  | ---------------------------
  | Total energy                  :          -1.15230949 Ha         -31.35593650 eV
  | Total energy, T -> 0          :          -1.15230949 Ha         -31.35593650 eV  <-- do not rely on this value for anything but (periodic) metals
  | Electronic free energy        :          -1.15230949 Ha         -31.35593650 eV

  Derived energy quantities:
  | Kinetic energy                :           0.99407791 Ha          27.05023633 eV
  | Electrostatic energy          :          -1.50842456 Ha         -41.04632061 eV
  | Energy correction for multipole
  | error in Hartree potential    :          -0.00009112 Ha          -0.00247948 eV
  | Sum of eigenvalues per atom                           :          -9.58009178 eV
  | Total energy (T->0) per atom                          :         -15.67796825 eV  <-- do not rely on this value for anything but (periodic) metals
  | Electronic free energy per atom                       :         -15.67796825 eV

  Self-consistency convergence accuracy:
  | Change of charge/spin density : 0.5799E-06 0.6073E-06
  | Change of sum of eigenvalues  : -.1827E-04 eV
  | Change of total energy        : 0.2011E-10 eV

  End self-consistency iteration #    27       :  max(cpu_time)    wall_clock(cpu1)
  | Time for this iteration                    :        0.027 s           0.026 s
  | Charge density update                      :        0.007 s           0.006 s
  | Density mixing                             :        0.002 s           0.002 s
  | Hartree multipole update                   :        0.001 s           0.001 s
  | Hartree multipole summation                :        0.004 s           0.005 s
  | Integration                                :        0.010 s           0.010 s
  | Solution of K.-S. eqns.                    :        0.001 s           0.001 s
  | Total energy evaluation                    :        0.000 s           0.001 s
------------------------------------------------------------

------------------------------------------------------------
          Begin self-consistency iteration #   28

  Date     :  20220120, Time     :  153045.590
------------------------------------------------------------
  Evaluating new KS density.
  Integration grid: deviation in total charge (<rho> - N_e) =   4.516387E-13
  | <rho_up-rho_dn> = N_up-N_dn =      0.0000; <|rho_up-rho_dn|> =      0.0000
  Pulay mixing of updated and previous charge densities.

  Evaluating partitioned Hartree potential by multipole expansion.
  | Analytical far-field extrapolation by fixed multipoles:
  | Hartree multipole sum: apparent total charge =  -0.193842E-06
  Summing up the Hartree potential.
  Time summed over all CPUs for potential: real work        0.033 s, elapsed        0.034 s
  | RMS charge density error from multipole expansion :   0.854208E-03

  Integrating Hamiltonian matrix: batch-based integration.
  Time summed over all CPUs for integration: real work        0.075 s, elapsed        0.076 s

  Updating Kohn-Sham eigenvalues, eigenvectors, occupation numbers, and Fermi level.
  Solving generalized eigenproblem
  Solving real symmetric generalised eigenvalue problem by standard ScaLAPACK.
  Using Cholesky factor for transformation
  Using 1-stage real ELPA solver
  Solving real symmetric generalised eigenvalue problem by standard ScaLAPACK.
  Using Cholesky factor for transformation
  Using 1-stage real ELPA solver
  Determining occupation numbers for Kohn-Sham eigenstates.
  | Chemical potential (Fermi level) in eV                 : -.80506985E+01
  | Error in electron count due to remaining E_F inaccuracy: 0.00000000E+00
  | Maximum occupation number of highest empty state:  0.00E+00

  Current spin moment of the entire structure :
  | N = N_up - N_down :    0.00
  | S                 :    0.00
  | J                 :    1.00

  Highest occupied state (VBM) at     -9.58009613 eV
  | Occupation number:      1.00000000
  | Spin channel:        2

  Lowest unoccupied state (CBM) at    -0.32038874 eV
  | Occupation number:      0.00000000
  | Spin channel:        1

  Overall HOMO-LUMO gap:      9.25970739 eV.

  Total energy components:
  | Sum of eigenvalues            :          -0.70412413 Ha         -19.16019241 eV
  | XC energy correction          :          -0.63796271 Ha         -17.35984848 eV
  | XC potential correction       :           0.81893973 Ha          22.28448379 eV
  | Free-atom electrostatic energy:          -0.44703117 Ha         -12.16433705 eV
  | Hartree energy correction     :          -0.18213121 Ha          -4.95604234 eV
  | van der Waals energy corr.    :           0.00000000 Ha           0.00000000 eV
  | Entropy correction            :           0.00000000 Ha           0.00000000 eV
  | ---------------------------
  | Total energy                  :          -1.15230949 Ha         -31.35593650 eV
  | Total energy, T -> 0          :          -1.15230949 Ha         -31.35593650 eV  <-- do not rely on this value for anything but (periodic) metals
  | Electronic free energy        :          -1.15230949 Ha         -31.35593650 eV

  Derived energy quantities:
  | Kinetic energy                :           0.99407780 Ha          27.05023331 eV
  | Electrostatic energy          :          -1.50842458 Ha         -41.04632133 eV
  | Energy correction for multipole
  | error in Hartree potential    :          -0.00009112 Ha          -0.00247947 eV
  | Sum of eigenvalues per atom                           :          -9.58009621 eV
  | Total energy (T->0) per atom                          :         -15.67796825 eV  <-- do not rely on this value for anything but (periodic) metals
  | Electronic free energy per atom                       :         -15.67796825 eV

  Self-consistency convergence accuracy:
  | Change of charge/spin density : 0.2523E-06 0.2474E-06
  | Change of sum of eigenvalues  : -.8860E-05 eV
  | Change of total energy        : 0.1661E-09 eV

  Writing Kohn-Sham eigenvalues.

  Spin-up eigenvalues:

  State    Occupation    Eigenvalue [Ha]    Eigenvalue [eV]
      1       1.00000          -0.352062           -9.58010
      2       0.00000          -0.011774           -0.32039
      3       0.00000           0.046963            1.27794
      4       0.00000           0.134545            3.66116
      5       0.00000           0.306507            8.34049
      6       0.00000           0.306507            8.34049
      7       0.00000           0.380782           10.36162
      8       0.00000           0.501212           13.63866
      9       0.00000           0.683905           18.60999
     10       0.00000           0.715758           19.47677
     11       0.00000           0.715758           19.47677

  Spin-down eigenvalues:

  State    Occupation    Eigenvalue [Ha]    Eigenvalue [eV]
      1       1.00000          -0.352062           -9.58010
      2       0.00000          -0.011774           -0.32039
      3       0.00000           0.046963            1.27794
      4       0.00000           0.134545            3.66116
      5       0.00000           0.306507            8.34049
      6       0.00000           0.306507            8.34049
      7       0.00000           0.380782           10.36162
      8       0.00000           0.501212           13.63866
      9       0.00000           0.683905           18.60999
     10       0.00000           0.715758           19.47677
     11       0.00000           0.715758           19.47677

  Current spin moment of the entire structure :
  | N = N_up - N_down :    0.00
  | S                 :    0.00
  | J                 :    1.00

  Highest occupied state (VBM) at     -9.58009613 eV
  | Occupation number:      1.00000000
  | Spin channel:        2

  Lowest unoccupied state (CBM) at    -0.32038874 eV
  | Occupation number:      0.00000000
  | Spin channel:        1

  Overall HOMO-LUMO gap:      9.25970739 eV.

  Self-consistency cycle converged.

  End self-consistency iteration #    28       :  max(cpu_time)    wall_clock(cpu1)
  | Time for this iteration                    :        0.027 s           0.027 s
  | Charge density update                      :        0.007 s           0.005 s
  | Density mixing                             :        0.002 s           0.002 s
  | Hartree multipole update                   :        0.001 s           0.002 s
  | Hartree multipole summation                :        0.004 s           0.004 s
  | Integration                                :        0.010 s           0.010 s
  | Solution of K.-S. eqns.                    :        0.001 s           0.001 s
  | Total energy evaluation                    :        0.000 s           0.000 s
------------------------------------------------------------
  Obtaining max. number of non-zero basis functions in each batch .
  Evaluating KS electron density on previously omitted grid points.
  Evaluating non-empirical van der Waals correction (Tkatchenko/Scheffler 2009).
  Performing Hirshfeld analysis of fragment charges and moments.
  ----------------------------------------------------------------------
  | Atom     1: H
  |   Hirshfeld charge        :     -0.00000058
  |   Free atom volume        :     10.31539447
  |   Hirshfeld volume        :      6.25108116
  |   Hirshfeld spin moment   :      0.00000003
  |   Hirshfeld dipole vector :     -0.00000000      -0.00000000      -0.08981226
  |   Hirshfeld dipole moment :      0.08981226
  |   Hirshfeld second moments:      0.09305110      -0.00000000       0.00000000
  |                                 -0.00000000       0.09305110       0.00000000
  |                                  0.00000000       0.00000000       0.09570891
  ----------------------------------------------------------------------
  | Atom     2: H
  |   Hirshfeld charge        :     -0.00000058
  |   Free atom volume        :     10.31539447
  |   Hirshfeld volume        :      6.25108116
  |   Hirshfeld spin moment   :      0.00000003
  |   Hirshfeld dipole vector :     -0.00000000       0.00000000       0.08981226
  |   Hirshfeld dipole moment :      0.08981226
  |   Hirshfeld second moments:      0.09305110      -0.00000000       0.00000000
  |                                 -0.00000000       0.09305110       0.00000000
  |                                  0.00000000       0.00000000       0.09570891
  ----------------------------------------------------------------------


  Total energy components:
  | Sum of eigenvalues            :          -0.70412413 Ha         -19.16019241 eV
  | XC energy correction          :          -0.63796271 Ha         -17.35984848 eV
  | XC potential correction       :           0.81893973 Ha          22.28448379 eV
  | Free-atom electrostatic energy:          -0.44703117 Ha         -12.16433705 eV
  | Hartree energy correction     :          -0.18213121 Ha          -4.95604234 eV
  | van der Waals energy corr.    :          -0.00000021 Ha          -0.00000566 eV
  | Entropy correction            :           0.00000000 Ha           0.00000000 eV
  | ---------------------------
  | Total energy                  :          -1.15230969 Ha         -31.35594216 eV
  | Total energy, T -> 0          :          -1.15230969 Ha         -31.35594216 eV  <-- do not rely on this value for anything but (periodic) metals
  | Electronic free energy        :          -1.15230969 Ha         -31.35594216 eV

  Derived energy quantities:
  | Kinetic energy                :           0.99407780 Ha          27.05023331 eV
  | Electrostatic energy          :          -1.50842458 Ha         -41.04632133 eV
  | Energy correction for multipole
  | error in Hartree potential    :          -0.00009112 Ha          -0.00247947 eV
  | Sum of eigenvalues per atom                           :          -9.58009621 eV
  | Total energy (T->0) per atom                          :         -15.67797108 eV  <-- do not rely on this value for anything but (periodic) metals
  | Electronic free energy per atom                       :         -15.67797108 eV
  Timings for VdW correction (Tkatchenko-Scheffler 2009 or later):
  | CPU time:        0.002 s, Wall clock time:        0.003 s.

  Energy and forces in a compact form:
  | Total energy uncorrected      :         -0.313559421568663E+02 eV
  | Total energy corrected        :         -0.313559421568663E+02 eV  <-- do not rely on this value for anything but (periodic) metals
  | Electronic free energy        :         -0.313559421568663E+02 eV

  ------------------------------------ 
  Start decomposition of the XC Energy 
  ------------------------------------ 
  Hartree-Fock part   :          0.000000000 Ha              0.000000000 eV
  ------------------------------------ 
  X Energy            :         -0.596143164 Ha            -16.221880850 eV
  C Energy GGA        :         -0.041819542 Ha             -1.137967634 eV
  Total XC Energy     :         -0.637962706 Ha            -17.359848483 eV
  LDA X and C from self-consistent density 
  X Energy LDA        :         -0.520029134 Ha            -14.150712717 eV
  C Energy LDA        :         -0.091171940 Ha             -2.480914710 eV
  ------------------------------------ 
  End decomposition of the XC Energy 
  ------------------------------------ 

------------------------------------------------------------------------------
  Final output of selected total energy values:

  The following output summarizes some interesting total energy values
  at the end of a run (AFTER all relaxation, molecular dynamics, etc.).

  | Total energy of the DFT / Hartree-Fock s.c.f. calculation      :            -31.355942157 eV
  | Final zero-broadening corrected energy (caution - metals only) :            -31.355942157 eV
  | For reference only, the value of 1 Hartree used in FHI-aims is :             27.211384500 eV

  Before relying on these values, please be sure to understand exactly which
  total energy value is referred to by a given number. Different objects may
  all carry the same name 'total energy'. Definitions:

  Total energy of the DFT / Hartree-Fock s.c.f. calculation:
  | Note that this energy does not include ANY quantities calculated after the
  | s.c.f. cycle, in particular not ANY RPA, MP2, etc. many-body perturbation terms.

  Final zero-broadening corrected energy:
  | For metallic systems only, a broadening of the occupation numbers at the Fermi
  | level can be extrapolated back to zero broadening by an electron-gas inspired
  | formula. For all systems that are not real metals, this value can be
  | meaningless and should be avoided.

------------------------------------------------------------------------------

------------------------------------------------------------
          Leaving FHI-aims.
          Date     :  20220120, Time     :  153045.626

          Computational steps:
          | Number of self-consistency cycles          :           28

          Detailed time accounting                     :  max(cpu_time)    wall_clock(cpu1)
          | Total time                                 :        0.906 s           1.013 s
          | Preparation time                           :        0.077 s           0.078 s
          | Grid partitioning                          :        0.007 s           0.007 s
          | Preloading free-atom quantities on grid    :        0.004 s           0.003 s
          | Free-atom superposition energy             :        0.002 s           0.003 s
          | Total time for integrations                :        0.269 s           0.271 s
          | Total time for solution of K.-S. equations :        0.044 s           0.045 s
          | Total time for density update              :        0.201 s           0.165 s
          | Total time for mixing                      :        0.046 s           0.047 s
          | Total time for Hartree multipole update    :        0.037 s           0.038 s
          | Total time for Hartree multipole sum       :        0.126 s           0.130 s
          | Total time for total energy evaluation     :        0.005 s           0.017 s
          | Total time for scaled ZORA corrections     :        0.000 s           0.000 s
          | Total time for vdW correction              :        0.002 s           0.003 s

          Have a nice day.
------------------------------------------------------------
