  MPI-parallelism will be employed.
------------------------------------------------------------
          Invoking FHI-aims ...
          Version 052014
          Git rev. (modified): 096c982 Merge branch master of fhiaims:/pub/localo[...]
          Compiled on 2016/12/16 at 15:22:01 on host login02.hpc.iitd.ac.in.

          When using FHI-aims, please cite the following reference:

          Volker Blum, Ralf Gehrke, Felix Hanke, Paula Havu,
          Ville Havu, Xinguo Ren, Karsten Reuter, and Matthias Scheffler,
          'Ab Initio Molecular Simulations with Numeric Atom-Centered Orbitals: FHI-aims',
          Computer Physics Communications 180, 2175-2196 (2009)

          For any questions about FHI-aims, please visit the aimsclub website
          with its forums and wiki. Contributions to both the forums and the
          wiki are warmly encouraged - they are for you, and everyone is welcome there.

------------------------------------------------------------

  Date     :  20220120, Time     :  153838.658
  Time zero on CPU 1             :   0.100600000000000E-01  s.
  Internal wall clock time zero  :           411925118.658  s.

  Using        8 parallel tasks.
  Task        0 on host csky008 reporting.
  Task        1 on host csky008 reporting.
  Task        2 on host csky008 reporting.
  Task        3 on host csky008 reporting.
  Task        4 on host csky008 reporting.
  Task        5 on host csky008 reporting.
  Task        6 on host csky008 reporting.
  Task        7 on host csky008 reporting.

  Performing system and environment tests:
  | Environment variable OMP_NUM_THREADS correctly set to 1.
  | Stacksize not measured: no C compiler
  | Checking for scalapack...
  | Testing pdtran()...
  | All pdtran() tests passed.

  Obtaining array dimensions for all initial allocations:
  
  -----------------------------------------------------------------------
  Parsing control.in (first pass over file, find array dimensions only).
  The contents of control.in will be repeated verbatim below
  unless switched off by setting 'verbatim_writeout .false.' .
  in the first line of control.in .
  -----------------------------------------------------------------------
  
    xc               pbe
    spin             collinear
    default_initial_moment hund
    relativistic     atomic_zora scalar 1e-9
    occupation_type  gaussian 0.001
    charge        0
    vdw_correction_hirshfeld
    KS_method        scalapack_fast
    mixer            pulay
    charge_mix_param  0.4
    spin_mix_param    0.6
    sc_accuracy_rho  1E-4
    sc_accuracy_eev  1E-5
    sc_accuracy_etot 1E-5
    sc_iter_limit    100
    empty_states     10
  ################################################################################
  #
  #  FHI-aims code project
  # Volker Blum, Fritz Haber Institute Berlin, 2009
  #
  #  Suggested "tight" defaults for H atom (to be pasted into control.in file)
  #
  ################################################################################
    species        H
  #     global species definitions
      nucleus             1
      mass                1.00794
  #
      l_hartree           6
  #
      cut_pot             4.0  2.0  1.0
      basis_dep_cutoff    1e-4
  #
      radial_base         24 7.0
      radial_multiplier   2
      angular_grids       specified
        division   0.1930   50
        division   0.3175  110
        division   0.4293  194
        division   0.5066  302
        division   0.5626  434
  #      division   0.5922  590
  #      division   0.6227  974
  #      division   0.6868 1202
  #      outer_grid  770
        outer_grid  434
  ################################################################################
  #
  #  Definition of "minimal" basis
  #
  ################################################################################
  #     valence basis states
      valence      1  s   1.
  #     ion occupancy
      ion_occ      1  s   0.5
  ################################################################################
  #
  #  Suggested additional basis functions. For production calculations,
  #  uncomment them one after another (the most important basis functions are
  #  listed first).
  #
  #  Basis constructed for dimers: 0.5 A, 0.7 A, 1.0 A, 1.5 A, 2.5 A
  #
  ################################################################################
  #  "First tier" - improvements: -1014.90 meV to -62.69 meV
       hydro 2 s 2.1
       hydro 2 p 3.5
  #  "Second tier" - improvements: -12.89 meV to -1.83 meV
       hydro 1 s 0.85
       hydro 2 p 3.7
       hydro 2 s 1.2
       hydro 3 d 7
  #  "Third tier" - improvements: -0.25 meV to -0.12 meV
  #     hydro 4 f 11.2
  #     hydro 3 p 4.8
  #     hydro 4 d 9
  #     hydro 3 s 3.2
  ################################################################################
  #
  # For methods that use the localized form of the "resolution of identity" for
  # the two-electron Coulomb operator (RI_method LVL), particularly Hartree-Fock and
  # hybrid density functional calculations, the highest accuracy can be obtained by
  # uncommenting the line beginning with "for_aux"  below, thus adding an extra g radial
  # function to the construction of the product basis set for the expansion.
  # See Ref. New J. Phys. 17, 093020 (2015) for more information, particularly Figs. 1 and 6.
  #
  ################################################################################
  #
  # for_aux hydro 5 g 6.0
  
  -----------------------------------------------------------------------
  Completed first pass over input file control.in .
  -----------------------------------------------------------------------
  
  
  -----------------------------------------------------------------------
  Parsing geometry.in (first pass over file, find array dimensions only).
  The contents of geometry.in will be repeated verbatim below
  unless switched off by setting 'verbatim_writeout .false.' .
  in the first line of geometry.in .
  -----------------------------------------------------------------------
  
  atom 0 0 0 H
  atom 0 0 0.41 H
  
  -----------------------------------------------------------------------
  Completed first pass over input file geometry.in .
  -----------------------------------------------------------------------
  

  Basic array size parameters:
  | Number of species                 :        1
  | Number of atoms                   :        2
  | Max. basis fn. angular momentum   :        2
  | Max. atomic/ionic basis occupied n:        1
  | Max. number of basis fn. types    :        2
  | Max. radial fns per species/type  :        6
  | Max. logarithmic grid size        :     1131
  | Max. radial integration grid size :       49
  | Max. angular integration grid size:      434
  | Max. angular grid division number :        8
  | Radial grid for Hartree potential :     1131
  | Number of spin channels           :        2

------------------------------------------------------------
          Reading file control.in.
------------------------------------------------------------
  XC: Using PBE gradient-corrected functionals.
  Spin treatment: Spin density functional theory - collinear spins.
  Initial spin moment per atom set according to Hund's rules.
  Scalar relativistic treatment of kinetic energy: on-site free-atom approximation to ZORA.
  Occupation type: Gaussian broadening, width =   0.100000E-02 eV.
  Charge =   0.000000E+00: Neutral system requested explicitly.
  Using non-empirical van der Waals correction (Hirshfeld partitioning):
  Kohn-Sham eigenvalues and eigenfunctions calculated by the ELPA eigensolver library.
  Using pulay charge density mixing.
  Charge density mixing - mixing parameter:     0.4000
  Spin density mixing - mixing parameter:     0.6000
  Convergence accuracy of self-consistent charge density: 0.1000E-03
  Convergence accuracy of sum of eigenvalues: 0.1000E-04
  Convergence accuracy of total energy: 0.1000E-04
  Maximum number of s.-c. iterations  :   100
  Number of empty states per atom:       10
 
  Reading configuration options for species H                   .
  | Found nuclear charge :   1.0000
  | Found atomic mass :    1.00794000000000      amu
  | Found l_max for Hartree potential  :   6
  | Found cutoff potl. onset [A], width [A], scale factor :    4.00000    2.00000    1.00000
  | Threshold for basis-dependent cutoff potential is   0.100000E-03
  | Found data for basic radial integration grid :    24 points, outermost radius =    7.000 A
  | Found multiplier for basic radial grid :   2
  | Found angular grid specification: user-specified.
  | Specified grid contains     6 separate shells.
  | Check grid settings after all constraints further below.
  | Found free-atom valence shell :  1 s   1.000
  | No ionic wave fns used. Skipping ion_occ.
  | Found hydrogenic basis function :  2 s   2.100
  | Found hydrogenic basis function :  2 p   3.500
  | Found hydrogenic basis function :  1 s   0.850
  | Found hydrogenic basis function :  2 p   3.700
  | Found hydrogenic basis function :  2 s   1.200
  | Found hydrogenic basis function :  3 d   7.000
  Species H                   : Missing cutoff potential type.
  Defaulting to exp(1/x)/(1-x)^2 type cutoff potential.
  Species H : No 'logarithmic' tag. Using default grid for free atom:
  | Default logarithmic grid data [bohr] : 0.1000E-03 0.1000E+03 0.1012E+01
  Species H : On-site basis accuracy parameter (for Gram-Schmidt orthonormalisation) not specified.
  Using default value basis_acc =  0.1000000E-03.
  Species H                   : Using default innermost maximum threshold i_radial=  2 for radial functions.
  Species H                   : Default cutoff onset for free atom density etc. : 0.40000000E+01 AA.
  Species H                   : Basic radial grid will be enhanced according to radial_multiplier =   2, to contain    49 grid points.
 
  Finished reading input file 'control.in'. Consistency checks are next.
 
  Target number of points in a grid batch is not set. Defaulting to  100
  Method for grid partitioning is not set. Defaulting to parallel hash+maxmin partitioning.
  Batch size limit is not set. Defaulting to    200
  By default, will store active basis functions for each batch.
  If in need of memory, prune_basis_once .false. can be used to disable this option.
  communication_type for Hartree potential was not specified.
  Defaulting to calc_hartree .
  Pulay mixer: Number of relevant iterations not set.
  Defaulting to    8 iterations.
  Pulay mixer: Number of initial linear mixing iterations not set.
  Defaulting to    0 iterations.
  Work space size for distributed Hartree potential not set.
  Defaulting to   0.200000E+03 MB.
  Algorithm-dependent basis array size parameters:
  | n_max_pulay                         :        8
  Calculation of forces was not defined in control.in. No forces will be calculated.
  Geometry relaxation not requested: no relaxation will be performed.
  No accuracy limit for integral partition fn. given. Defaulting to 0.1000E-14.
  No threshold value for u(r) in integrations given. Defaulting to 0.1000E-05.
  No accuracy for occupation numbers given. Defaulting to 0.1000E-07.
  No threshold value for occupation numbers given. Defaulting to 0.0000E+00.
  No accuracy for fermi level given. Defaulting to 0.1000E-19.
  Maximum # of iterations to find E_F not set. Defaulting to  200.
  Will not use alltoall communication since running on < 1024 CPUs.
  Threshold for basis singularities not set.
  Default threshold for basis singularities: 0.1000E-04
  partition_type (choice of integration weights) for integrals was not specified.
  | Using a version of the partition function of Stratmann and coworkers ('stratmann_smoother').
  | At each grid point, the set of atoms used to build the partition table is smoothly restricted to
  | only those atoms whose free-atom density would be non-zero at that grid point.
  Partitioning for Hartree potential was not defined. Using partition_type for integrals.
  | Adjusted default value of keyword multip_moments_threshold to:       0.10000000E-11
  | This value may affect high angular momentum components of the Hartree potential in periodic systems.
  No q(lm)/r^(l+1) cutoff set for long-range Hartree potential.
  | Using default value of  0.100000E-09 .
  | Verify using the multipole_threshold keyword.
  Defaulting to new monopole extrapolation.
  Density update method: automatic selection selected.
------------------------------------------------------------


------------------------------------------------------------
          Reading geometry description geometry.in.
------------------------------------------------------------
  Input structure read successfully.
  The structure contains        2 atoms,  and a total of          2.000 electrons.

  Input geometry:
  | No unit cell requested.
  | Atomic structure:
  |       Atom                x [A]            y [A]            z [A]
  |    1: Species H              0.000000         0.000000         0.000000
  |    2: Species H              0.000000         0.000000         0.410000
  |

  | The smallest distance between any two atoms is         0.41000000 AA.
  |
  | The first atom of this pair is atom number                      1 .
  | The second atom of this pair is atom number                     2 .

  Initial moments and charges:
  |  Atom   Moment         Charge        Species
  |     1  (Hund's rule)   0.000000E+00   H
  |     2  (Hund's rule)   0.000000E+00   H

  Structure-dependent array size parameters: 
  | Number of distinct atom types in initial rho :        1
  | Maximum number of distinct radial functions  :        7
  | Maximum number of basis functions            :       30
  | Number of Kohn-Sham states (occupied + empty):       11
------------------------------------------------------------

------------------------------------------------------------
          Preparing all fixed parts of the calculation.
------------------------------------------------------------
  Determining machine precision:
    2.225073858507201E-308
  Setting up grids for atomic and cluster calculations.

  Creating wave function, potential, and density for free atoms.

  Species: H

  List of occupied orbitals and eigenvalues:
    n    l              occ      energy [Ha]    energy [eV]
    1    0           1.0000        -0.238386        -6.4868

  Spin-polarized or charged system:
  Charge density initialized according to selected moments and charges.

  Creating spin-polarized density from free atoms.

  Species: H
  Charge:   0.000000
  applying Hund's rules ...

  List of occupied orbitals and eigenvalues:
    n    l      energy [Ha]    energy [eV]    occupation
  Spin-up
    1    0        -0.278991        -7.5917     1.00000000
  Spin-down
    1    0         0.090850         2.4721     0.00000000

  Creating fixed part of basis set: Ionic, confined, hydrogenic.
 
  H                    hydrogenic:
 
  List of hydrogenic basis orbitals: 
    n    l      effective z      eigenvalue [eV]  inner max. [A]     outer max. [A]     outer radius [A]   
    2    0         2.100000       -14.9965           0.193243           1.317208           5.373006
    2    1         3.500000       -41.6672           0.602369           0.602369           4.056063
    1    0         0.850000        -9.8292           0.624871           0.624871           5.373006
    2    1         3.700000       -46.5653           0.573622           0.573622           3.910002
    2    0         1.200000        -4.5995           0.334980           2.228188           5.505995
    3    2         7.000000       -74.0753           0.680699           0.680699           3.769201
 

  Adding cutoff potential to free-atom effective potential.
  Creating atomic-like basis functions for current effective potential.

  Species H                   :

  List of atomic basis orbitals and eigenvalues:
    n    l      energy [Ha]    energy [eV]    outer radius [A]
    1    0        -0.238386        -6.4868       5.373006

  Assembling full basis from fixed parts.
  | Species H :   atomic orbital   1 s accepted.
  | Species H :    hydro orbital   2 s accepted.
  | Species H :    hydro orbital   1 s accepted.
  | Species H :    hydro orbital   2 s accepted.
  | Species H :    hydro orbital   2 p accepted.
  | Species H :    hydro orbital   2 p accepted.
  | Species H :    hydro orbital   3 d accepted.
 
  Basis size parameters after reduction:
  | Total number of radial functions:        7
  | Total number of basis functions :       30
 
  Testing on-site integration grid accuracy.
  |  Species  Function  <phi|h_atom|phi> (log., in eV)  <phi|h_atom|phi> (rad., in eV)
           1        1                 -6.4870767962                 -6.4871688290
           1        2                 13.5032046589                 13.5028982997
           1        3                 32.8195184817                 32.8119941656
           1        4                 33.8513856511                 33.7670005767 ***
           1        5                 28.8544614965                 28.8544615203
           1        6                 59.6326952547                 59.6327656460
           1        7                 60.2719308513                 60.2719305949
 * Note: Onsite integrals marked "***" above are less accurate than
 * onsite_accuracy_threshold =    0.03000 eV. Usually, this is harmless.
 * When in doubt, tighten the "radial" and/or "radial_multiplier" flags to check.

  Preparing densities etc. for the partition functions (integrals / Hartree potential).

  Preparations completed.
  max(cpu_time)          :      0.068 s.
  Wall clock time (cpu1) :      0.069 s.
------------------------------------------------------------

------------------------------------------------------------
          Begin self-consistency loop: Initialization.

          Date     :  20220120, Time     :  153838.790
------------------------------------------------------------

  Initializing index lists of integration centers etc. from given atomic structure:
  | Number of centers in hartree potential         :         2
  | Number of centers in hartree multipole         :         2
  | Number of centers in electron density summation:         2
  | Number of centers in basis integrals           :         2
  | Number of centers in integrals                 :         2
  Using modified Scalapack Eigenvalue solver (ELPA)
  * Using 8 tasks for Scalapack Eigenvalue solver.
  Detailed listing of tasks and assigned k-points:
  (for non-periodic systems, the "k-point" denotes an internal label only)
   Task     0 k-point     1 on csky008
   Task     1 k-point     1 on csky008
   Task     2 k-point     1 on csky008
   Task     3 k-point     1 on csky008
   Task     4 k-point     1 on csky008
   Task     5 k-point     1 on csky008
   Task     6 k-point     1 on csky008
   Task     7 k-point     1 on csky008
  Tasks:     8 split into      4 X      2 BLACS grid
  Calculating blocksize based on n_basis =           30 max_nprow =            4 max_npcol =            2
  Scalapack blocksize set to:            4
  Required Scalapack workspace - INTEGER:            1 REAL:             1
  Partitioning the integration grid into batches with parallel hashing+maxmin method.
  | Number of batches:      445
  | Maximal batch size:     197
  | Minimal batch size:      49
  | Average batch size:      64.944
  | Standard deviation of batch sizes:      18.319

  Integration load balanced across     8 MPI tasks.
  Work distribution over tasks is as follows:
  Task     0 has       3679 integration points.
  Task     1 has       3616 integration points.
  Task     2 has       3590 integration points.
  Task     3 has       3577 integration points.
  Task     4 has       3590 integration points.
  Task     5 has       3623 integration points.
  Task     6 has       3644 integration points.
  Task     7 has       3581 integration points.
  Initializing partition tables, free-atom densities, potentials, etc. across the integration grid (initialize_grid_storage).
  | initialize_grid_storage: Actual outermost partition radius vs. multipole_radius_free
  | (-- VB: in principle, multipole_radius_free should be larger, hence this output)
  | Species        1: outer_partition_radius =              6.000000000000000 AA, multipole_radius_free =              6.071692442739658 AA.
  | Original list of interatomic distances with           2 x          2 entries is created.
  | Net number of integration points:    28900
  | of which are non-zero points    :    25776
  Obtaining max. number of non-zero basis functions in each batch (get_n_compute_maxes).
  | Maximal number of non-zero basis functions:       30 in task     0
  | Maximal number of non-zero basis functions:       30 in task     1
  | Maximal number of non-zero basis functions:       30 in task     2
  | Maximal number of non-zero basis functions:       30 in task     3
  | Maximal number of non-zero basis functions:       30 in task     4
  | Maximal number of non-zero basis functions:       30 in task     5
  | Maximal number of non-zero basis functions:       30 in task     6
  | Maximal number of non-zero basis functions:       30 in task     7
  Selecting the method for density update.
  Loop over occupied states selected for charge density update.
  Integrating Hamiltonian matrix: batch-based integration.
  Time summed over all CPUs for integration: real work        0.071 s, elapsed        0.076 s
  Integrating overlap matrix.
  Time summed over all CPUs for integration: real work        0.019 s, elapsed        0.024 s
  Deallocating overlap matrix.

  Updating Kohn-Sham eigenvalues, eigenvectors, occupation numbers, and Fermi level.
  Solving generalized eigenproblem
  Solving real symmetric generalised eigenvalue problem by standard ScaLAPACK.
  Transforming overlap matrix with ScaLAPACK and checking for singularities.
  : Overlap matrix is nonsingular, using Cholesky decomposition
  | Lowest eigenvalue:  0.515530E-04
  Factoring overlap matrix with Cholesky decomposition
  Using Cholesky factor for transformation
  Using 1-stage real ELPA solver
  Solving real symmetric generalised eigenvalue problem by standard ScaLAPACK.
  Using Cholesky factor for transformation
  Using 1-stage real ELPA solver
  Determining occupation numbers for Kohn-Sham eigenstates.
  | Chemical potential (Fermi level) in eV                 : -.16348383E+00
  | Error in electron count due to remaining E_F inaccuracy: 0.80190365E-08
  | Maximum occupation number of highest empty state:  0.00E+00

  Writing Kohn-Sham eigenvalues.

  Spin-up eigenvalues:

  State    Occupation    Eigenvalue [Ha]    Eigenvalue [eV]
      1       1.00000          -0.803287          -21.85856
      2       1.00000          -0.006165           -0.16775
      3       0.00000          -0.005862           -0.15950
      4       0.00000           0.142018            3.86451
      5       0.00000           0.201725            5.48921
      6       0.00000           0.201725            5.48921
      7       0.00000           0.257922            7.01843
      8       0.00000           0.575943           15.67221
      9       0.00000           0.660519           17.97362
     10       0.00000           0.660519           17.97362
     11       0.00000           0.709414           19.30413

  Spin-down eigenvalues:

  State    Occupation    Eigenvalue [Ha]    Eigenvalue [eV]
      1       0.00000           0.099226            2.70008
      2       0.00000           0.109913            2.99087
      3       0.00000           0.511480           13.91808
      4       0.00000           0.525962           14.31215
      5       0.00000           1.118324           30.43113
      6       0.00000           1.198326           32.60810
      7       0.00000           1.198326           32.60810
      8       0.00000           1.369238           37.25885
      9       0.00000           1.369238           37.25885
     10       0.00000           1.524180           41.47506
     11       0.00000           1.655801           45.05663

  Current spin moment of the entire structure :
  | N = N_up - N_down :    2.00
  | S                 :    1.00
  | J                 :    3.00

  Highest occupied state (VBM) at     -0.16774941 eV
  | Occupation number:      1.00000000
  | Spin channel:        1

  Lowest unoccupied state (CBM) at    -0.15950031 eV
  | Occupation number:      0.00000001
  | Spin channel:        1

  Overall HOMO-LUMO gap:      0.00824910 eV.
  Calculating total energy contributions from superposition of free atom densities.

  Total energy components:
  | Sum of eigenvalues            :          -0.80945215 Ha         -22.02631377 eV
  | XC energy correction          :          -0.72252836 Ha         -19.66099707 eV
  | XC potential correction       :           0.93298922 Ha          25.38792839 eV
  | Free-atom electrostatic energy:           0.16855006 Ha           4.58648062 eV
  | Hartree energy correction     :           0.00000000 Ha           0.00000000 eV
  | van der Waals energy corr.    :           0.00000000 Ha           0.00000000 eV
  | Entropy correction            :          -0.00000000 Ha          -0.00000000 eV
  | ---------------------------
  | Total energy                  :          -0.43044123 Ha         -11.71290183 eV
  | Total energy, T -> 0          :          -0.43044123 Ha         -11.71290183 eV  <-- do not rely on this value for anything but (periodic) metals
  | Electronic free energy        :          -0.43044123 Ha         -11.71290183 eV

  Derived energy quantities:
  | Kinetic energy                :           1.30238139 Ha          35.43960067 eV
  | Electrostatic energy          :          -1.01029425 Ha         -27.49150543 eV
  | Energy correction for multipole
  | error in Hartree potential    :           0.00000000 Ha           0.00000000 eV
  | Sum of eigenvalues per atom                           :         -11.01315688 eV
  | Total energy (T->0) per atom                          :          -5.85645092 eV  <-- do not rely on this value for anything but (periodic) metals
  | Electronic free energy per atom                       :          -5.85645092 eV
  Initialize hartree_potential_storage
  Max. number of atoms included in rho_multipole:            2

  End scf initialization - timings             :  max(cpu_time)    wall_clock(cpu1)
  | Time for scf. initialization               :        0.035 s           0.035 s
  | Boundary condition initialization          :        0.000 s           0.000 s
  | Integration                                :        0.013 s           0.013 s
  | Solution of K.-S. eqns.                    :        0.006 s           0.006 s
  | Grid partitioning                          :        0.006 s           0.006 s
  | Preloading free-atom quantities on grid    :        0.003 s           0.003 s
  | Free-atom superposition energy             :        0.002 s           0.002 s
  | Total energy evaluation                    :        0.000 s           0.001 s
------------------------------------------------------------

------------------------------------------------------------
          Begin self-consistency iteration #    1

  Date     :  20220120, Time     :  153838.825
------------------------------------------------------------
  Evaluating new KS density.
  Integration grid: deviation in total charge (<rho> - N_e) =   4.279524E-07
  | <rho_up-rho_dn> = N_up-N_dn =      2.0000; <|rho_up-rho_dn|> =      2.4882
  Pulay mixing of updated and previous charge densities.

  Evaluating partitioned Hartree potential by multipole expansion.
  | Analytical far-field extrapolation by fixed multipoles:
  | Hartree multipole sum: apparent total charge =  -0.259258E-04
  Summing up the Hartree potential.
  Time summed over all CPUs for potential: real work        0.030 s, elapsed        0.031 s
  | RMS charge density error from multipole expansion :   0.742831E-03

  Integrating Hamiltonian matrix: batch-based integration.
  Time summed over all CPUs for integration: real work        0.057 s, elapsed        0.060 s

  Updating Kohn-Sham eigenvalues, eigenvectors, occupation numbers, and Fermi level.
  Solving generalized eigenproblem
  Solving real symmetric generalised eigenvalue problem by standard ScaLAPACK.
  Using Cholesky factor for transformation
  Using 1-stage real ELPA solver
  Solving real symmetric generalised eigenvalue problem by standard ScaLAPACK.
  Using Cholesky factor for transformation
  Using 1-stage real ELPA solver
  Determining occupation numbers for Kohn-Sham eigenstates.
  | Chemical potential (Fermi level) in eV                 : -.90458621E+01
  | Error in electron count due to remaining E_F inaccuracy: 0.00000000E+00
  | Maximum occupation number of highest empty state:  0.00E+00

  Writing Kohn-Sham eigenvalues.

  Spin-up eigenvalues:

  State    Occupation    Eigenvalue [Ha]    Eigenvalue [eV]
      1       1.00000          -0.629801          -17.13775
      2       0.00000           0.033683            0.91655
      3       0.00000           0.066984            1.82273
      4       0.00000           0.161518            4.39514
      5       0.00000           0.195526            5.32054
      6       0.00000           0.195526            5.32054
      7       0.00000           0.319717            8.69993
      8       0.00000           0.619313           16.85235
      9       0.00000           0.667050           18.15136
     10       0.00000           0.667050           18.15136
     11       0.00000           0.724735           19.72105

  Spin-down eigenvalues:

  State    Occupation    Eigenvalue [Ha]    Eigenvalue [eV]
      1       1.00000          -0.445256          -12.11605
      2       0.00000           0.065666            1.78685
      3       0.00000           0.075982            2.06758
      4       0.00000           0.207231            5.63905
      5       0.00000           0.301738            8.21072
      6       0.00000           0.301738            8.21072
      7       0.00000           0.363535            9.89230
      8       0.00000           0.698003           18.99362
      9       0.00000           0.738341           20.09128
     10       0.00000           0.738341           20.09128
     11       0.00000           0.804580           21.89373

  Current spin moment of the entire structure :
  | N = N_up - N_down :    0.00
  | S                 :    0.00
  | J                 :    1.00

  Highest occupied state (VBM) at    -12.11604577 eV
  | Occupation number:      1.00000000
  | Spin channel:        2

  Lowest unoccupied state (CBM) at     0.91655065 eV
  | Occupation number:      0.00000000
  | Spin channel:        1

  Overall HOMO-LUMO gap:     13.03259642 eV.

  Total energy components:
  | Sum of eigenvalues            :          -1.07505739 Ha         -29.25379993 eV
  | XC energy correction          :          -0.42218284 Ha         -11.48817961 eV
  | XC potential correction       :           0.53922294 Ha          14.67300288 eV
  | Free-atom electrostatic energy:           0.16855006 Ha           4.58648062 eV
  | Hartree energy correction     :           0.09957488 Ha           2.70957039 eV
  | van der Waals energy corr.    :           0.00000000 Ha           0.00000000 eV
  | Entropy correction            :           0.00000000 Ha           0.00000000 eV
  | ---------------------------
  | Total energy                  :          -0.68989234 Ha         -18.77292565 eV
  | Total energy, T -> 0          :          -0.68989234 Ha         -18.77292565 eV  <-- do not rely on this value for anything but (periodic) metals
  | Electronic free energy        :          -0.68989234 Ha         -18.77292565 eV

  Derived energy quantities:
  | Kinetic energy                :           0.83876237 Ha          22.82388541 eV
  | Electrostatic energy          :          -1.10647187 Ha         -30.10863145 eV
  | Energy correction for multipole
  | error in Hartree potential    :          -0.00003411 Ha          -0.00092816 eV
  | Sum of eigenvalues per atom                           :         -14.62689996 eV
  | Total energy (T->0) per atom                          :          -9.38646283 eV  <-- do not rely on this value for anything but (periodic) metals
  | Electronic free energy per atom                       :          -9.38646283 eV

  Self-consistency convergence accuracy:
  | Change of charge/spin density : 0.1306E+00 0.1306E+00
  | Change of sum of eigenvalues  : -.7227E+01 eV
  | Change of total energy        : -.7060E+01 eV

  End self-consistency iteration #     1       :  max(cpu_time)    wall_clock(cpu1)
  | Time for this iteration                    :        0.023 s           0.023 s
  | Charge density update                      :        0.006 s           0.006 s
  | Density mixing                             :        0.001 s           0.000 s
  | Hartree multipole update                   :        0.001 s           0.002 s
  | Hartree multipole summation                :        0.005 s           0.004 s
  | Integration                                :        0.008 s           0.008 s
  | Solution of K.-S. eqns.                    :        0.001 s           0.001 s
  | Total energy evaluation                    :        0.000 s           0.001 s
------------------------------------------------------------

------------------------------------------------------------
          Begin self-consistency iteration #    2

  Date     :  20220120, Time     :  153838.850
------------------------------------------------------------
  Evaluating new KS density.
  Integration grid: deviation in total charge (<rho> - N_e) =   2.439410E-07
  | <rho_up-rho_dn> = N_up-N_dn =     -2.0000; <|rho_up-rho_dn|> =      2.0000
  Pulay mixing of updated and previous charge densities.

  Evaluating partitioned Hartree potential by multipole expansion.
  | Analytical far-field extrapolation by fixed multipoles:
  | Hartree multipole sum: apparent total charge =  -0.238358E-04
  Summing up the Hartree potential.
  Time summed over all CPUs for potential: real work        0.030 s, elapsed        0.030 s
  | RMS charge density error from multipole expansion :   0.756854E-03

  Integrating Hamiltonian matrix: batch-based integration.
  Time summed over all CPUs for integration: real work        0.059 s, elapsed        0.062 s

  Updating Kohn-Sham eigenvalues, eigenvectors, occupation numbers, and Fermi level.
  Solving generalized eigenproblem
  Solving real symmetric generalised eigenvalue problem by standard ScaLAPACK.
  Using Cholesky factor for transformation
  Using 1-stage real ELPA solver
  Solving real symmetric generalised eigenvalue problem by standard ScaLAPACK.
  Using Cholesky factor for transformation
  Using 1-stage real ELPA solver
  Determining occupation numbers for Kohn-Sham eigenstates.
  | Chemical potential (Fermi level) in eV                 : -.13096314E+02
  | Error in electron count due to remaining E_F inaccuracy: 0.00000000E+00
  | Maximum occupation number of highest empty state:  0.00E+00

  Current spin moment of the entire structure :
  | N = N_up - N_down :    0.00
  | S                 :    0.00
  | J                 :    1.00

  Highest occupied state (VBM) at    -15.85251940 eV
  | Occupation number:      1.00000000
  | Spin channel:        2

  Lowest unoccupied state (CBM) at     0.74599893 eV
  | Occupation number:      0.00000000
  | Spin channel:        1

  Overall HOMO-LUMO gap:     16.59851833 eV.

  Total energy components:
  | Sum of eigenvalues            :          -1.39541384 Ha         -37.97114266 eV
  | XC energy correction          :          -0.60329348 Ha         -16.41645080 eV
  | XC potential correction       :           0.77630148 Ha          21.12423820 eV
  | Free-atom electrostatic energy:           0.16855006 Ha           4.58648062 eV
  | Hartree energy correction     :           0.06688761 Ha           1.82010434 eV
  | van der Waals energy corr.    :           0.00000000 Ha           0.00000000 eV
  | Entropy correction            :           0.00000000 Ha           0.00000000 eV
  | ---------------------------
  | Total energy                  :          -0.98696817 Ha         -26.85677031 eV
  | Total energy, T -> 0          :          -0.98696817 Ha         -26.85677031 eV  <-- do not rely on this value for anything but (periodic) metals
  | Electronic free energy        :          -0.98696817 Ha         -26.85677031 eV

  Derived energy quantities:
  | Kinetic energy                :           0.76694157 Ha          20.86954195 eV
  | Electrostatic energy          :          -1.15061626 Ha         -31.30986146 eV
  | Energy correction for multipole
  | error in Hartree potential    :          -0.00001486 Ha          -0.00040443 eV
  | Sum of eigenvalues per atom                           :         -18.98557133 eV
  | Total energy (T->0) per atom                          :         -13.42838515 eV  <-- do not rely on this value for anything but (periodic) metals
  | Electronic free energy per atom                       :         -13.42838515 eV

  Self-consistency convergence accuracy:
  | Change of charge/spin density : 0.1616E+00 0.3392E+00
  | Change of sum of eigenvalues  : -.8717E+01 eV
  | Change of total energy        : -.8084E+01 eV

  End self-consistency iteration #     2       :  max(cpu_time)    wall_clock(cpu1)
  | Time for this iteration                    :        0.022 s           0.022 s
  | Charge density update                      :        0.006 s           0.005 s
  | Density mixing                             :        0.001 s           0.001 s
  | Hartree multipole update                   :        0.001 s           0.001 s
  | Hartree multipole summation                :        0.004 s           0.004 s
  | Integration                                :        0.008 s           0.008 s
  | Solution of K.-S. eqns.                    :        0.001 s           0.002 s
  | Total energy evaluation                    :        0.000 s           0.001 s
------------------------------------------------------------

------------------------------------------------------------
          Begin self-consistency iteration #    3

  Date     :  20220120, Time     :  153838.873
------------------------------------------------------------
  Evaluating new KS density.
  Integration grid: deviation in total charge (<rho> - N_e) =   2.252739E-07
  | <rho_up-rho_dn> = N_up-N_dn =     -1.7704; <|rho_up-rho_dn|> =      1.7704
  Pulay mixing of updated and previous charge densities.

  Evaluating partitioned Hartree potential by multipole expansion.
  | Analytical far-field extrapolation by fixed multipoles:
  | Hartree multipole sum: apparent total charge =  -0.252628E-04
  Summing up the Hartree potential.
  Time summed over all CPUs for potential: real work        0.029 s, elapsed        0.030 s
  | RMS charge density error from multipole expansion :   0.527029E-03

  Integrating Hamiltonian matrix: batch-based integration.
  Time summed over all CPUs for integration: real work        0.058 s, elapsed        0.060 s

  Updating Kohn-Sham eigenvalues, eigenvectors, occupation numbers, and Fermi level.
  Solving generalized eigenproblem
  Solving real symmetric generalised eigenvalue problem by standard ScaLAPACK.
  Using Cholesky factor for transformation
  Using 1-stage real ELPA solver
  Solving real symmetric generalised eigenvalue problem by standard ScaLAPACK.
  Using Cholesky factor for transformation
  Using 1-stage real ELPA solver
  Determining occupation numbers for Kohn-Sham eigenstates.
  | Chemical potential (Fermi level) in eV                 : -.10203528E+02
  | Error in electron count due to remaining E_F inaccuracy: 0.00000000E+00
  | Maximum occupation number of highest empty state:  0.00E+00

  Current spin moment of the entire structure :
  | N = N_up - N_down :    0.00
  | S                 :    0.00
  | J                 :    1.00

  Highest occupied state (VBM) at    -13.49194745 eV
  | Occupation number:      1.00000000
  | Spin channel:        2

  Lowest unoccupied state (CBM) at     0.59685137 eV
  | Occupation number:      0.00000000
  | Spin channel:        1

  Overall HOMO-LUMO gap:     14.08879882 eV.

  Total energy components:
  | Sum of eigenvalues            :          -1.17397320 Ha         -31.94543610 eV
  | XC energy correction          :          -0.46471168 Ha         -12.64544827 eV
  | XC potential correction       :           0.59520488 Ha          16.19634873 eV
  | Free-atom electrostatic energy:           0.16855006 Ha           4.58648062 eV
  | Hartree energy correction     :           0.11141854 Ha           3.03185275 eV
  | van der Waals energy corr.    :           0.00000000 Ha           0.00000000 eV
  | Entropy correction            :           0.00000000 Ha           0.00000000 eV
  | ---------------------------
  | Total energy                  :          -0.76351140 Ha         -20.77620228 eV
  | Total energy, T -> 0          :          -0.76351140 Ha         -20.77620228 eV  <-- do not rely on this value for anything but (periodic) metals
  | Electronic free energy        :          -0.76351140 Ha         -20.77620228 eV

  Derived energy quantities:
  | Kinetic energy                :           0.74179600 Ha          20.18529619 eV
  | Electrostatic energy          :          -1.04059572 Ha         -28.31605020 eV
  | Energy correction for multipole
  | error in Hartree potential    :          -0.00002533 Ha          -0.00068925 eV
  | Sum of eigenvalues per atom                           :         -15.97271805 eV
  | Total energy (T->0) per atom                          :         -10.38810114 eV  <-- do not rely on this value for anything but (periodic) metals
  | Electronic free energy per atom                       :         -10.38810114 eV

  Self-consistency convergence accuracy:
  | Change of charge/spin density : 0.2876E+00 0.2825E+00
  | Change of sum of eigenvalues  : 0.6026E+01 eV
  | Change of total energy        : 0.6081E+01 eV

  End self-consistency iteration #     3       :  max(cpu_time)    wall_clock(cpu1)
  | Time for this iteration                    :        0.022 s           0.022 s
  | Charge density update                      :        0.006 s           0.005 s
  | Density mixing                             :        0.001 s           0.002 s
  | Hartree multipole update                   :        0.001 s           0.001 s
  | Hartree multipole summation                :        0.004 s           0.004 s
  | Integration                                :        0.008 s           0.008 s
  | Solution of K.-S. eqns.                    :        0.001 s           0.001 s
  | Total energy evaluation                    :        0.000 s           0.001 s
------------------------------------------------------------

------------------------------------------------------------
          Begin self-consistency iteration #    4

  Date     :  20220120, Time     :  153838.900
------------------------------------------------------------
  Evaluating new KS density.
  Integration grid: deviation in total charge (<rho> - N_e) =   2.346722E-07
  | <rho_up-rho_dn> = N_up-N_dn =     -1.8641; <|rho_up-rho_dn|> =      1.8641
  Pulay mixing of updated and previous charge densities.

  Evaluating partitioned Hartree potential by multipole expansion.
  | Analytical far-field extrapolation by fixed multipoles:
  | Hartree multipole sum: apparent total charge =  -0.251339E-04
  Summing up the Hartree potential.
  Time summed over all CPUs for potential: real work        0.030 s, elapsed        0.030 s
  | RMS charge density error from multipole expansion :   0.302127E-02

  Integrating Hamiltonian matrix: batch-based integration.
  Time summed over all CPUs for integration: real work        0.058 s, elapsed        0.062 s

  Updating Kohn-Sham eigenvalues, eigenvectors, occupation numbers, and Fermi level.
  Solving generalized eigenproblem
  Solving real symmetric generalised eigenvalue problem by standard ScaLAPACK.
  Using Cholesky factor for transformation
  Using 1-stage real ELPA solver
  Solving real symmetric generalised eigenvalue problem by standard ScaLAPACK.
  Using Cholesky factor for transformation
  Using 1-stage real ELPA solver
  Determining occupation numbers for Kohn-Sham eigenstates.
  | Chemical potential (Fermi level) in eV                 : -.18130198E+02
  | Error in electron count due to remaining E_F inaccuracy: 0.00000000E+00
  | Maximum occupation number of highest empty state:  0.00E+00

  Current spin moment of the entire structure :
  | N = N_up - N_down :    0.00
  | S                 :    0.00
  | J                 :    1.00

  Highest occupied state (VBM) at    -18.89152117 eV
  | Occupation number:      1.00000000
  | Spin channel:        2

  Lowest unoccupied state (CBM) at    -0.45414597 eV
  | Occupation number:      0.00000000
  | Spin channel:        1

  Overall HOMO-LUMO gap:     18.43737520 eV.

  Total energy components:
  | Sum of eigenvalues            :          -1.46598817 Ha         -39.89156786 eV
  | XC energy correction          :          -0.49208884 Ha         -13.39041859 eV
  | XC potential correction       :           0.63148906 Ha          17.18369153 eV
  | Free-atom electrostatic energy:           0.16855006 Ha           4.58648062 eV
  | Hartree energy correction     :           0.25533065 Ha           6.94790040 eV
  | van der Waals energy corr.    :           0.00000000 Ha           0.00000000 eV
  | Entropy correction            :           0.00000000 Ha           0.00000000 eV
  | ---------------------------
  | Total energy                  :          -0.90270724 Ha         -24.56391391 eV
  | Total energy, T -> 0          :          -0.90270724 Ha         -24.56391391 eV  <-- do not rely on this value for anything but (periodic) metals
  | Electronic free energy        :          -0.90270724 Ha         -24.56391391 eV

  Derived energy quantities:
  | Kinetic energy                :          -0.42562071 Ha         -11.58172877 eV
  | Electrostatic energy          :           0.01500230 Ha           0.40823345 eV
  | Energy correction for multipole
  | error in Hartree potential    :           0.00007003 Ha           0.00190573 eV
  | Sum of eigenvalues per atom                           :         -19.94578393 eV
  | Total energy (T->0) per atom                          :         -12.28195696 eV  <-- do not rely on this value for anything but (periodic) metals
  | Electronic free energy per atom                       :         -12.28195696 eV

  Self-consistency convergence accuracy:
  | Change of charge/spin density : 0.2051E+00 0.3071E+00
  | Change of sum of eigenvalues  : -.7946E+01 eV
  | Change of total energy        : -.3788E+01 eV

  End self-consistency iteration #     4       :  max(cpu_time)    wall_clock(cpu1)
  | Time for this iteration                    :        0.023 s           0.022 s
  | Charge density update                      :        0.006 s           0.005 s
  | Density mixing                             :        0.001 s           0.001 s
  | Hartree multipole update                   :        0.001 s           0.001 s
  | Hartree multipole summation                :        0.004 s           0.004 s
  | Integration                                :        0.008 s           0.008 s
  | Solution of K.-S. eqns.                    :        0.001 s           0.002 s
  | Total energy evaluation                    :        0.000 s           0.000 s
------------------------------------------------------------

------------------------------------------------------------
          Begin self-consistency iteration #    5

  Date     :  20220120, Time     :  153838.923
------------------------------------------------------------
  Evaluating new KS density.
  Integration grid: deviation in total charge (<rho> - N_e) =   1.921057E-07
  | <rho_up-rho_dn> = N_up-N_dn =     -1.3028; <|rho_up-rho_dn|> =      1.3028
  Pulay mixing of updated and previous charge densities.

  Evaluating partitioned Hartree potential by multipole expansion.
  | Analytical far-field extrapolation by fixed multipoles:
  | Hartree multipole sum: apparent total charge =  -0.529971E-04
  Summing up the Hartree potential.
  Time summed over all CPUs for potential: real work        0.029 s, elapsed        0.030 s
  | RMS charge density error from multipole expansion :   0.243367E-01

  Integrating Hamiltonian matrix: batch-based integration.
  Time summed over all CPUs for integration: real work        0.060 s, elapsed        0.064 s

  Updating Kohn-Sham eigenvalues, eigenvectors, occupation numbers, and Fermi level.
  Solving generalized eigenproblem
  Solving real symmetric generalised eigenvalue problem by standard ScaLAPACK.
  Using Cholesky factor for transformation
  Using 1-stage real ELPA solver
  Solving real symmetric generalised eigenvalue problem by standard ScaLAPACK.
  Using Cholesky factor for transformation
  Using 1-stage real ELPA solver
  Determining occupation numbers for Kohn-Sham eigenstates.
  | Chemical potential (Fermi level) in eV                 : -.74543289E+02
  | Error in electron count due to remaining E_F inaccuracy: 0.00000000E+00
  | Maximum occupation number of highest empty state:  0.00E+00

  Current spin moment of the entire structure :
  | N = N_up - N_down :    0.00
  | S                 :    0.00
  | J                 :    1.00

  Highest occupied state (VBM) at    -80.80755263 eV
  | Occupation number:      1.00000000
  | Spin channel:        2

  Lowest unoccupied state (CBM) at   -18.75344533 eV
  | Occupation number:      0.00000000
  | Spin channel:        1

  Overall HOMO-LUMO gap:     62.05410729 eV.

  Total energy components:
  | Sum of eigenvalues            :          -5.95192364 Ha        -161.96008257 eV
  | XC energy correction          :          -1.53976735 Ha         -41.89920134 eV
  | XC potential correction       :           1.98510791 Ha          54.01753466 eV
  | Free-atom electrostatic energy:           0.16855006 Ha           4.58648062 eV
  | Hartree energy correction     :          -3.34680295 Ha         -91.07114205 eV
  | van der Waals energy corr.    :           0.00000000 Ha           0.00000000 eV
  | Entropy correction            :           0.00000000 Ha           0.00000000 eV
  | ---------------------------
  | Total energy                  :          -8.68483596 Ha        -236.32641068 eV
  | Total energy, T -> 0          :          -8.68483596 Ha        -236.32641068 eV  <-- do not rely on this value for anything but (periodic) metals
  | Electronic free energy        :          -8.68483596 Ha        -236.32641068 eV

  Derived energy quantities:
  | Kinetic energy                :         -19.21904233 Ha        -522.97675051 eV
  | Electrostatic energy          :          12.07397371 Ha         328.54954117 eV
  | Energy correction for multipole
  | error in Hartree potential    :           0.00025815 Ha           0.00702468 eV
  | Sum of eigenvalues per atom                           :         -80.98004129 eV
  | Total energy (T->0) per atom                          :        -118.16320534 eV  <-- do not rely on this value for anything but (periodic) metals
  | Electronic free energy per atom                       :        -118.16320534 eV

  Self-consistency convergence accuracy:
  | Change of charge/spin density : 0.5920E+00 0.1947E+00
  | Change of sum of eigenvalues  : -.1221E+03 eV
  | Change of total energy        : -.2118E+03 eV

  End self-consistency iteration #     5       :  max(cpu_time)    wall_clock(cpu1)
  | Time for this iteration                    :        0.023 s           0.022 s
  | Charge density update                      :        0.006 s           0.005 s
  | Density mixing                             :        0.001 s           0.002 s
  | Hartree multipole update                   :        0.001 s           0.001 s
  | Hartree multipole summation                :        0.004 s           0.004 s
  | Integration                                :        0.008 s           0.008 s
  | Solution of K.-S. eqns.                    :        0.001 s           0.001 s
  | Total energy evaluation                    :        0.000 s           0.000 s
------------------------------------------------------------

------------------------------------------------------------
          Begin self-consistency iteration #    6

  Date     :  20220120, Time     :  153838.950
------------------------------------------------------------
  Evaluating new KS density.
  Integration grid: deviation in total charge (<rho> - N_e) =   1.877846E-07
  | <rho_up-rho_dn> = N_up-N_dn =     -1.0141; <|rho_up-rho_dn|> =      1.8504
  Pulay mixing of updated and previous charge densities.

  Evaluating partitioned Hartree potential by multipole expansion.
  | Analytical far-field extrapolation by fixed multipoles:
  | Hartree multipole sum: apparent total charge =  -0.837831E-05
  Summing up the Hartree potential.
  Time summed over all CPUs for potential: real work        0.029 s, elapsed        0.030 s
  | RMS charge density error from multipole expansion :   0.289125E-02

  Integrating Hamiltonian matrix: batch-based integration.
  Time summed over all CPUs for integration: real work        0.057 s, elapsed        0.060 s

  Updating Kohn-Sham eigenvalues, eigenvectors, occupation numbers, and Fermi level.
  Solving generalized eigenproblem
  Solving real symmetric generalised eigenvalue problem by standard ScaLAPACK.
  Using Cholesky factor for transformation
  Using 1-stage real ELPA solver
  Solving real symmetric generalised eigenvalue problem by standard ScaLAPACK.
  Using Cholesky factor for transformation
  Using 1-stage real ELPA solver
  Determining occupation numbers for Kohn-Sham eigenstates.
  | Chemical potential (Fermi level) in eV                 : -.10949076E+02
  | Error in electron count due to remaining E_F inaccuracy: 0.00000000E+00
  | Maximum occupation number of highest empty state:  0.00E+00

  Current spin moment of the entire structure :
  | N = N_up - N_down :    0.00
  | S                 :    0.00
  | J                 :    1.00

  Highest occupied state (VBM) at    -11.94006779 eV
  | Occupation number:      1.00000000
  | Spin channel:        2

  Lowest unoccupied state (CBM) at     2.20148472 eV
  | Occupation number:      0.00000000
  | Spin channel:        1

  Overall HOMO-LUMO gap:     14.14155251 eV.

  Total energy components:
  | Sum of eigenvalues            :          -0.93892785 Ha         -25.54952663 eV
  | XC energy correction          :          -0.81594999 Ha         -22.20312903 eV
  | XC potential correction       :           1.04699461 Ha          28.49017299 eV
  | Free-atom electrostatic energy:           0.16855006 Ha           4.58648062 eV
  | Hartree energy correction     :          -0.43306155 Ha         -11.78420448 eV
  | van der Waals energy corr.    :           0.00000000 Ha           0.00000000 eV
  | Entropy correction            :           0.00000000 Ha           0.00000000 eV
  | ---------------------------
  | Total energy                  :          -0.97239472 Ha         -26.46020653 eV
  | Total energy, T -> 0          :          -0.97239472 Ha         -26.46020653 eV  <-- do not rely on this value for anything but (periodic) metals
  | Electronic free energy        :          -0.97239472 Ha         -26.46020653 eV

  Derived energy quantities:
  | Kinetic energy                :           1.69278470 Ha          46.06301538 eV
  | Electrostatic energy          :          -1.84922942 Ha         -50.32009289 eV
  | Energy correction for multipole
  | error in Hartree potential    :           0.00021471 Ha           0.00584253 eV
  | Sum of eigenvalues per atom                           :         -12.77476331 eV
  | Total energy (T->0) per atom                          :         -13.23010327 eV  <-- do not rely on this value for anything but (periodic) metals
  | Electronic free energy per atom                       :         -13.23010327 eV

  Self-consistency convergence accuracy:
  | Change of charge/spin density : 0.3408E+01 0.5170E+00
  | Change of sum of eigenvalues  : 0.1364E+03 eV
  | Change of total energy        : 0.2099E+03 eV

  End self-consistency iteration #     6       :  max(cpu_time)    wall_clock(cpu1)
  | Time for this iteration                    :        0.022 s           0.022 s
  | Charge density update                      :        0.006 s           0.005 s
  | Density mixing                             :        0.001 s           0.002 s
  | Hartree multipole update                   :        0.001 s           0.001 s
  | Hartree multipole summation                :        0.004 s           0.004 s
  | Integration                                :        0.008 s           0.008 s
  | Solution of K.-S. eqns.                    :        0.001 s           0.001 s
  | Total energy evaluation                    :        0.000 s           0.001 s
------------------------------------------------------------

------------------------------------------------------------
          Begin self-consistency iteration #    7

  Date     :  20220120, Time     :  153838.973
------------------------------------------------------------
  Evaluating new KS density.
  Integration grid: deviation in total charge (<rho> - N_e) =   1.099376E-07
  | <rho_up-rho_dn> = N_up-N_dn =     -0.7079; <|rho_up-rho_dn|> =      0.7079
  Pulay mixing of updated and previous charge densities.

  Evaluating partitioned Hartree potential by multipole expansion.
  | Analytical far-field extrapolation by fixed multipoles:
  | Hartree multipole sum: apparent total charge =   0.177593E-05
  Summing up the Hartree potential.
  Time summed over all CPUs for potential: real work        0.029 s, elapsed        0.030 s
  | RMS charge density error from multipole expansion :   0.544648E-02

  Integrating Hamiltonian matrix: batch-based integration.
  Time summed over all CPUs for integration: real work        0.061 s, elapsed        0.063 s

  Updating Kohn-Sham eigenvalues, eigenvectors, occupation numbers, and Fermi level.
  Solving generalized eigenproblem
  Solving real symmetric generalised eigenvalue problem by standard ScaLAPACK.
  Using Cholesky factor for transformation
  Using 1-stage real ELPA solver
  Solving real symmetric generalised eigenvalue problem by standard ScaLAPACK.
  Using Cholesky factor for transformation
  Using 1-stage real ELPA solver
  Determining occupation numbers for Kohn-Sham eigenstates.
  | Chemical potential (Fermi level) in eV                 : -.46505207E+01
  | Error in electron count due to remaining E_F inaccuracy: 0.00000000E+00
  | Maximum occupation number of highest empty state:  0.00E+00

  Current spin moment of the entire structure :
  | N = N_up - N_down :    0.00
  | S                 :    0.00
  | J                 :    1.00

  Highest occupied state (VBM) at     -6.64682279 eV
  | Occupation number:      1.00000000
  | Spin channel:        2

  Lowest unoccupied state (CBM) at     1.36019641 eV
  | Occupation number:      0.00000000
  | Spin channel:        1

  Overall HOMO-LUMO gap:      8.00701920 eV.

  Total energy components:
  | Sum of eigenvalues            :          -0.50113729 Ha         -13.63663942 eV
  | XC energy correction          :          -1.09854562 Ha         -29.89294717 eV
  | XC potential correction       :           1.41188219 Ha          38.41926913 eV
  | Free-atom electrostatic energy:           0.16855006 Ha           4.58648062 eV
  | Hartree energy correction     :          -1.01400698 Ha         -27.59253379 eV
  | van der Waals energy corr.    :           0.00000000 Ha           0.00000000 eV
  | Entropy correction            :           0.00000000 Ha           0.00000000 eV
  | ---------------------------
  | Total energy                  :          -1.03325763 Ha         -28.11637064 eV
  | Total energy, T -> 0          :          -1.03325763 Ha         -28.11637064 eV  <-- do not rely on this value for anything but (periodic) metals
  | Electronic free energy        :          -1.03325763 Ha         -28.11637064 eV

  Derived energy quantities:
  | Kinetic energy                :           2.51373205 Ha          68.40212935 eV
  | Electrostatic energy          :          -2.44844406 Ha         -66.62555281 eV
  | Energy correction for multipole
  | error in Hartree potential    :           0.00023849 Ha           0.00648955 eV
  | Sum of eigenvalues per atom                           :          -6.81831971 eV
  | Total energy (T->0) per atom                          :         -14.05818532 eV  <-- do not rely on this value for anything but (periodic) metals
  | Electronic free energy per atom                       :         -14.05818532 eV

  Self-consistency convergence accuracy:
  | Change of charge/spin density : 0.3088E-01 0.1377E+00
  | Change of sum of eigenvalues  : 0.1191E+02 eV
  | Change of total energy        : -.1656E+01 eV

  End self-consistency iteration #     7       :  max(cpu_time)    wall_clock(cpu1)
  | Time for this iteration                    :        0.023 s           0.022 s
  | Charge density update                      :        0.006 s           0.005 s
  | Density mixing                             :        0.001 s           0.001 s
  | Hartree multipole update                   :        0.001 s           0.001 s
  | Hartree multipole summation                :        0.004 s           0.005 s
  | Integration                                :        0.008 s           0.008 s
  | Solution of K.-S. eqns.                    :        0.001 s           0.001 s
  | Total energy evaluation                    :        0.000 s           0.001 s
------------------------------------------------------------

------------------------------------------------------------
          Begin self-consistency iteration #    8

  Date     :  20220120, Time     :  153838.998
------------------------------------------------------------
  Evaluating new KS density.
  Integration grid: deviation in total charge (<rho> - N_e) =   4.655853E-08
  | <rho_up-rho_dn> = N_up-N_dn =     -0.1667; <|rho_up-rho_dn|> =      0.2388
  Pulay mixing of updated and previous charge densities.

  Evaluating partitioned Hartree potential by multipole expansion.
  | Analytical far-field extrapolation by fixed multipoles:
  | Hartree multipole sum: apparent total charge =   0.529928E-05
  Summing up the Hartree potential.
  Time summed over all CPUs for potential: real work        0.029 s, elapsed        0.030 s
  | RMS charge density error from multipole expansion :   0.683183E-02

  Integrating Hamiltonian matrix: batch-based integration.
  Time summed over all CPUs for integration: real work        0.060 s, elapsed        0.062 s

  Updating Kohn-Sham eigenvalues, eigenvectors, occupation numbers, and Fermi level.
  Solving generalized eigenproblem
  Solving real symmetric generalised eigenvalue problem by standard ScaLAPACK.
  Using Cholesky factor for transformation
  Using 1-stage real ELPA solver
  Solving real symmetric generalised eigenvalue problem by standard ScaLAPACK.
  Using Cholesky factor for transformation
  Using 1-stage real ELPA solver
  Determining occupation numbers for Kohn-Sham eigenstates.
  | Chemical potential (Fermi level) in eV                 : -.20247720E+01
  | Error in electron count due to remaining E_F inaccuracy: 0.00000000E+00
  | Maximum occupation number of highest empty state:  0.00E+00

  Current spin moment of the entire structure :
  | N = N_up - N_down :    0.00
  | S                 :    0.00
  | J                 :    1.00

  Highest occupied state (VBM) at     -4.03831615 eV
  | Occupation number:      1.00000000
  | Spin channel:        2

  Lowest unoccupied state (CBM) at     1.55457387 eV
  | Occupation number:      0.00000000
  | Spin channel:        1

  Overall HOMO-LUMO gap:      5.59289002 eV.

  Total energy components:
  | Sum of eigenvalues            :          -0.30517327 Ha          -8.30418732 eV
  | XC energy correction          :          -1.24164113 Ha         -33.78677411 eV
  | XC potential correction       :           1.59674678 Ha          43.44969060 eV
  | Free-atom electrostatic energy:           0.16855006 Ha           4.58648062 eV
  | Hartree energy correction     :          -1.31165384 Ha         -35.69191691 eV
  | van der Waals energy corr.    :           0.00000000 Ha           0.00000000 eV
  | Entropy correction            :           0.00000000 Ha           0.00000000 eV
  | ---------------------------
  | Total energy                  :          -1.09317139 Ha         -29.74670713 eV
  | Total energy, T -> 0          :          -1.09317139 Ha         -29.74670713 eV  <-- do not rely on this value for anything but (periodic) metals
  | Electronic free energy        :          -1.09317139 Ha         -29.74670713 eV

  Derived energy quantities:
  | Kinetic energy                :           2.85237666 Ha          77.61711792 eV
  | Electrostatic energy          :          -2.70390692 Ha         -73.57705094 eV
  | Energy correction for multipole
  | error in Hartree potential    :           0.00018153 Ha           0.00493964 eV
  | Sum of eigenvalues per atom                           :          -4.15209366 eV
  | Total energy (T->0) per atom                          :         -14.87335356 eV  <-- do not rely on this value for anything but (periodic) metals
  | Electronic free energy per atom                       :         -14.87335356 eV

  Self-consistency convergence accuracy:
  | Change of charge/spin density : 0.3897E+00 0.1046E+00
  | Change of sum of eigenvalues  : 0.5332E+01 eV
  | Change of total energy        : -.1630E+01 eV

  End self-consistency iteration #     8       :  max(cpu_time)    wall_clock(cpu1)
  | Time for this iteration                    :        0.023 s           0.023 s
  | Charge density update                      :        0.006 s           0.005 s
  | Density mixing                             :        0.002 s           0.002 s
  | Hartree multipole update                   :        0.001 s           0.001 s
  | Hartree multipole summation                :        0.004 s           0.004 s
  | Integration                                :        0.008 s           0.008 s
  | Solution of K.-S. eqns.                    :        0.001 s           0.002 s
  | Total energy evaluation                    :        0.000 s           0.001 s
------------------------------------------------------------

------------------------------------------------------------
          Begin self-consistency iteration #    9

  Date     :  20220120, Time     :  153839.023
------------------------------------------------------------
  Evaluating new KS density.
  Integration grid: deviation in total charge (<rho> - N_e) =   3.017815E-08
  | <rho_up-rho_dn> = N_up-N_dn =     -0.0412; <|rho_up-rho_dn|> =      0.2907
  Pulay mixing of updated and previous charge densities.

  Evaluating partitioned Hartree potential by multipole expansion.
  | Analytical far-field extrapolation by fixed multipoles:
  | Hartree multipole sum: apparent total charge =   0.619397E-05
  Summing up the Hartree potential.
  Time summed over all CPUs for potential: real work        0.029 s, elapsed        0.030 s
  | RMS charge density error from multipole expansion :   0.745461E-02

  Integrating Hamiltonian matrix: batch-based integration.
  Time summed over all CPUs for integration: real work        0.059 s, elapsed        0.062 s

  Updating Kohn-Sham eigenvalues, eigenvectors, occupation numbers, and Fermi level.
  Solving generalized eigenproblem
  Solving real symmetric generalised eigenvalue problem by standard ScaLAPACK.
  Using Cholesky factor for transformation
  Using 1-stage real ELPA solver
  Solving real symmetric generalised eigenvalue problem by standard ScaLAPACK.
  Using Cholesky factor for transformation
  Using 1-stage real ELPA solver
  Determining occupation numbers for Kohn-Sham eigenstates.
  | Chemical potential (Fermi level) in eV                 : -.83768552E+00
  | Error in electron count due to remaining E_F inaccuracy: 0.00000000E+00
  | Maximum occupation number of highest empty state:  0.00E+00

  Current spin moment of the entire structure :
  | N = N_up - N_down :    0.00
  | S                 :    0.00
  | J                 :    1.00

  Highest occupied state (VBM) at     -2.77431194 eV
  | Occupation number:      1.00000000
  | Spin channel:        2

  Lowest unoccupied state (CBM) at     1.68441111 eV
  | Occupation number:      0.00000000
  | Spin channel:        1

  Overall HOMO-LUMO gap:      4.45872305 eV.

  Total energy components:
  | Sum of eigenvalues            :          -0.21335046 Ha          -5.80556145 eV
  | XC energy correction          :          -1.32459541 Ha         -36.04407508 eV
  | XC potential correction       :           1.70434902 Ha          46.37769657 eV
  | Free-atom electrostatic energy:           0.16855006 Ha           4.58648062 eV
  | Hartree energy correction     :          -1.48624443 Ha         -40.44276860 eV
  | van der Waals energy corr.    :           0.00000000 Ha           0.00000000 eV
  | Entropy correction            :           0.00000000 Ha           0.00000000 eV
  | ---------------------------
  | Total energy                  :          -1.15129122 Ha         -31.32822795 eV
  | Total energy, T -> 0          :          -1.15129122 Ha         -31.32822795 eV  <-- do not rely on this value for anything but (periodic) metals
  | Electronic free energy        :          -1.15129122 Ha         -31.32822795 eV

  Derived energy quantities:
  | Kinetic energy                :           2.97983302 Ha          81.08538212 eV
  | Electrostatic energy          :          -2.80652883 Ha         -76.36953499 eV
  | Energy correction for multipole
  | error in Hartree potential    :           0.00019116 Ha           0.00520180 eV
  | Sum of eigenvalues per atom                           :          -2.90278073 eV
  | Total energy (T->0) per atom                          :         -15.66411398 eV  <-- do not rely on this value for anything but (periodic) metals
  | Electronic free energy per atom                       :         -15.66411398 eV

  Self-consistency convergence accuracy:
  | Change of charge/spin density : 0.5929E+00 0.1295E+00
  | Change of sum of eigenvalues  : 0.2499E+01 eV
  | Change of total energy        : -.1582E+01 eV

  End self-consistency iteration #     9       :  max(cpu_time)    wall_clock(cpu1)
  | Time for this iteration                    :        0.023 s           0.022 s
  | Charge density update                      :        0.006 s           0.005 s
  | Density mixing                             :        0.002 s           0.001 s
  | Hartree multipole update                   :        0.001 s           0.002 s
  | Hartree multipole summation                :        0.004 s           0.004 s
  | Integration                                :        0.008 s           0.007 s
  | Solution of K.-S. eqns.                    :        0.001 s           0.002 s
  | Total energy evaluation                    :        0.000 s           0.001 s
------------------------------------------------------------

------------------------------------------------------------
          Begin self-consistency iteration #   10

  Date     :  20220120, Time     :  153839.050
------------------------------------------------------------
  Evaluating new KS density.
  Integration grid: deviation in total charge (<rho> - N_e) =   3.184155E-08
  | <rho_up-rho_dn> = N_up-N_dn =     -0.0691; <|rho_up-rho_dn|> =      0.3348
  Pulay mixing of updated and previous charge densities.

  Evaluating partitioned Hartree potential by multipole expansion.
  | Analytical far-field extrapolation by fixed multipoles:
  | Hartree multipole sum: apparent total charge =   0.713755E-05
  Summing up the Hartree potential.
  Time summed over all CPUs for potential: real work        0.030 s, elapsed        0.030 s
  | RMS charge density error from multipole expansion :   0.791510E-02

  Integrating Hamiltonian matrix: batch-based integration.
  Time summed over all CPUs for integration: real work        0.059 s, elapsed        0.061 s

  Updating Kohn-Sham eigenvalues, eigenvectors, occupation numbers, and Fermi level.
  Solving generalized eigenproblem
  Solving real symmetric generalised eigenvalue problem by standard ScaLAPACK.
  Using Cholesky factor for transformation
  Using 1-stage real ELPA solver
  Solving real symmetric generalised eigenvalue problem by standard ScaLAPACK.
  Using Cholesky factor for transformation
  Using 1-stage real ELPA solver
  Determining occupation numbers for Kohn-Sham eigenstates.
  | Chemical potential (Fermi level) in eV                 : -.17555003E-01
  | Error in electron count due to remaining E_F inaccuracy: 0.00000000E+00
  | Maximum occupation number of highest empty state:  0.00E+00

  Current spin moment of the entire structure :
  | N = N_up - N_down :    0.00
  | S                 :    0.00
  | J                 :    1.00

  Highest occupied state (VBM) at     -1.99445694 eV
  | Occupation number:      1.00000000
  | Spin channel:        2

  Lowest unoccupied state (CBM) at     1.75630542 eV
  | Occupation number:      0.00000000
  | Spin channel:        1

  Overall HOMO-LUMO gap:      3.75076236 eV.

  Total energy components:
  | Sum of eigenvalues            :          -0.15318206 Ha          -4.16829580 eV
  | XC energy correction          :          -1.38815131 Ha         -37.77351905 eV
  | XC potential correction       :           1.78684076 Ha          48.62241083 eV
  | Free-atom electrostatic energy:           0.16855006 Ha           4.58648062 eV
  | Hartree energy correction     :          -1.62295330 Ha         -44.16280631 eV
  | van der Waals energy corr.    :           0.00000000 Ha           0.00000000 eV
  | Entropy correction            :           0.00000000 Ha           0.00000000 eV
  | ---------------------------
  | Total energy                  :          -1.20889585 Ha         -32.89572972 eV
  | Total energy, T -> 0          :          -1.20889585 Ha         -32.89572972 eV  <-- do not rely on this value for anything but (periodic) metals
  | Electronic free energy        :          -1.20889585 Ha         -32.89572972 eV

  Derived energy quantities:
  | Kinetic energy                :           3.05566295 Ha          83.14881946 eV
  | Electrostatic energy          :          -2.87640749 Ha         -78.27103013 eV
  | Energy correction for multipole
  | error in Hartree potential    :           0.00020225 Ha           0.00550346 eV
  | Sum of eigenvalues per atom                           :          -2.08414790 eV
  | Total energy (T->0) per atom                          :         -16.44786486 eV  <-- do not rely on this value for anything but (periodic) metals
  | Electronic free energy per atom                       :         -16.44786486 eV

  Self-consistency convergence accuracy:
  | Change of charge/spin density : 0.6990E+00 0.1475E+00
  | Change of sum of eigenvalues  : 0.1637E+01 eV
  | Change of total energy        : -.1568E+01 eV

  End self-consistency iteration #    10       :  max(cpu_time)    wall_clock(cpu1)
  | Time for this iteration                    :        0.023 s           0.022 s
  | Charge density update                      :        0.006 s           0.005 s
  | Density mixing                             :        0.002 s           0.001 s
  | Hartree multipole update                   :        0.001 s           0.002 s
  | Hartree multipole summation                :        0.004 s           0.004 s
  | Integration                                :        0.008 s           0.007 s
  | Solution of K.-S. eqns.                    :        0.001 s           0.002 s
  | Total energy evaluation                    :        0.000 s           0.001 s
------------------------------------------------------------

------------------------------------------------------------
          Begin self-consistency iteration #   11

  Date     :  20220120, Time     :  153839.073
------------------------------------------------------------
  Evaluating new KS density.
  Integration grid: deviation in total charge (<rho> - N_e) =   2.535614E-08
  | <rho_up-rho_dn> = N_up-N_dn =      0.0116; <|rho_up-rho_dn|> =      0.3787
  Pulay mixing of updated and previous charge densities.

  Evaluating partitioned Hartree potential by multipole expansion.
  | Analytical far-field extrapolation by fixed multipoles:
  | Hartree multipole sum: apparent total charge =   0.946597E-05
  Summing up the Hartree potential.
  Time summed over all CPUs for potential: real work        0.029 s, elapsed        0.030 s
  | RMS charge density error from multipole expansion :   0.906161E-02

  Integrating Hamiltonian matrix: batch-based integration.
  Time summed over all CPUs for integration: real work        0.059 s, elapsed        0.062 s

  Updating Kohn-Sham eigenvalues, eigenvectors, occupation numbers, and Fermi level.
  Solving generalized eigenproblem
  Solving real symmetric generalised eigenvalue problem by standard ScaLAPACK.
  Using Cholesky factor for transformation
  Using 1-stage real ELPA solver
  Solving real symmetric generalised eigenvalue problem by standard ScaLAPACK.
  Using Cholesky factor for transformation
  Using 1-stage real ELPA solver
  Determining occupation numbers for Kohn-Sham eigenstates.
  | Chemical potential (Fermi level) in eV                 : 0.62862011E+00
  | Error in electron count due to remaining E_F inaccuracy: 0.00000000E+00
  | Maximum occupation number of highest empty state:  0.00E+00

  Current spin moment of the entire structure :
  | N = N_up - N_down :    0.00
  | S                 :    0.00
  | J                 :    1.00

  Highest occupied state (VBM) at     -1.27566420 eV
  | Occupation number:      1.00000000
  | Spin channel:        2

  Lowest unoccupied state (CBM) at     1.66710209 eV
  | Occupation number:      0.00000000
  | Spin channel:        2

  Overall HOMO-LUMO gap:      2.94276629 eV.

  Total energy components:
  | Sum of eigenvalues            :          -0.10165894 Ha          -2.76628043 eV
  | XC energy correction          :          -1.47043698 Ha         -40.01262605 eV
  | XC potential correction       :           1.89284792 Ha          51.50701243 eV
  | Free-atom electrostatic energy:           0.16855006 Ha           4.58648062 eV
  | Hartree energy correction     :          -1.78628895 Ha         -48.60739549 eV
  | van der Waals energy corr.    :           0.00000000 Ha           0.00000000 eV
  | Entropy correction            :           0.00000000 Ha           0.00000000 eV
  | ---------------------------
  | Total energy                  :          -1.29698689 Ha         -35.29280893 eV
  | Total energy, T -> 0          :          -1.29698689 Ha         -35.29280893 eV  <-- do not rely on this value for anything but (periodic) metals
  | Electronic free energy        :          -1.29698689 Ha         -35.29280893 eV

  Derived energy quantities:
  | Kinetic energy                :           3.20018987 Ha          87.08159695 eV
  | Electrostatic energy          :          -3.02673978 Ha         -82.36177982 eV
  | Energy correction for multipole
  | error in Hartree potential    :           0.00004859 Ha           0.00132226 eV
  | Sum of eigenvalues per atom                           :          -1.38314022 eV
  | Total energy (T->0) per atom                          :         -17.64640446 eV  <-- do not rely on this value for anything but (periodic) metals
  | Electronic free energy per atom                       :         -17.64640446 eV

[...]
  | Change of sum of eigenvalues  : -.1799E-03 eV
  | Change of total energy        : -.4185E-06 eV

  End self-consistency iteration #    23       :  max(cpu_time)    wall_clock(cpu1)
  | Time for this iteration                    :        0.024 s           0.023 s
  | Charge density update                      :        0.006 s           0.005 s
  | Density mixing                             :        0.002 s           0.002 s
  | Hartree multipole update                   :        0.001 s           0.001 s
  | Hartree multipole summation                :        0.004 s           0.004 s
  | Integration                                :        0.009 s           0.009 s
  | Solution of K.-S. eqns.                    :        0.001 s           0.001 s
  | Total energy evaluation                    :        0.000 s           0.001 s
------------------------------------------------------------

------------------------------------------------------------
          Begin self-consistency iteration #   24

  Date     :  20220120, Time     :  153839.398
------------------------------------------------------------
  Evaluating new KS density.
  Integration grid: deviation in total charge (<rho> - N_e) =  -3.242939E-11
  | <rho_up-rho_dn> = N_up-N_dn =      0.0000; <|rho_up-rho_dn|> =      0.0000
  Pulay mixing of updated and previous charge densities.

  Evaluating partitioned Hartree potential by multipole expansion.
  | Analytical far-field extrapolation by fixed multipoles:
  | Hartree multipole sum: apparent total charge =   0.240010E-05
  Summing up the Hartree potential.
  Time summed over all CPUs for potential: real work        0.029 s, elapsed        0.030 s
  | RMS charge density error from multipole expansion :   0.279737E-02

  Integrating Hamiltonian matrix: batch-based integration.
  Time summed over all CPUs for integration: real work        0.064 s, elapsed        0.067 s

  Updating Kohn-Sham eigenvalues, eigenvectors, occupation numbers, and Fermi level.
  Solving generalized eigenproblem
  Solving real symmetric generalised eigenvalue problem by standard ScaLAPACK.
  Using Cholesky factor for transformation
  Using 1-stage real ELPA solver
  Solving real symmetric generalised eigenvalue problem by standard ScaLAPACK.
  Using Cholesky factor for transformation
  Using 1-stage real ELPA solver
  Determining occupation numbers for Kohn-Sham eigenstates.
  | Chemical potential (Fermi level) in eV                 : -.10694833E+02
  | Error in electron count due to remaining E_F inaccuracy: 0.00000000E+00
  | Maximum occupation number of highest empty state:  0.00E+00

  Current spin moment of the entire structure :
  | N = N_up - N_down :    0.00
  | S                 :    0.00
  | J                 :    1.00

  Highest occupied state (VBM) at    -12.44150011 eV
  | Occupation number:      1.00000000
  | Spin channel:        1

  Lowest unoccupied state (CBM) at     1.24239022 eV
  | Occupation number:      0.00000000
  | Spin channel:        2

  Overall HOMO-LUMO gap:     13.68389033 eV.

  Total energy components:
  | Sum of eigenvalues            :          -0.91443347 Ha         -24.88300084 eV
  | XC energy correction          :          -0.82674216 Ha         -22.49679878 eV
  | XC potential correction       :           1.06069750 Ha          28.86304753 eV
  | Free-atom electrostatic energy:           0.16855006 Ha           4.58648062 eV
  | Hartree energy correction     :          -0.47495914 Ha         -12.92429568 eV
  | van der Waals energy corr.    :           0.00000000 Ha           0.00000000 eV
  | Entropy correction            :           0.00000000 Ha           0.00000000 eV
  | ---------------------------
  | Total energy                  :          -0.98688720 Ha         -26.85456715 eV
  | Total energy, T -> 0          :          -0.98688720 Ha         -26.85456715 eV  <-- do not rely on this value for anything but (periodic) metals
  | Electronic free energy        :          -0.98688720 Ha         -26.85456715 eV

  Derived energy quantities:
  | Kinetic energy                :           1.62660186 Ha          44.26208854 eV
  | Electrostatic energy          :          -1.78674690 Ha         -48.61985692 eV
  | Energy correction for multipole
  | error in Hartree potential    :           0.00018997 Ha           0.00516947 eV
  | Sum of eigenvalues per atom                           :         -12.44150042 eV
  | Total energy (T->0) per atom                          :         -13.42728358 eV  <-- do not rely on this value for anything but (periodic) metals
  | Electronic free energy per atom                       :         -13.42728358 eV

  Self-consistency convergence accuracy:
  | Change of charge/spin density : 0.1407E-05 0.5599E-06
  | Change of sum of eigenvalues  : 0.8201E-04 eV
  | Change of total energy        : -.1136E-07 eV

  End self-consistency iteration #    24       :  max(cpu_time)    wall_clock(cpu1)
  | Time for this iteration                    :        0.023 s           0.023 s
  | Charge density update                      :        0.006 s           0.005 s
  | Density mixing                             :        0.002 s           0.002 s
  | Hartree multipole update                   :        0.001 s           0.001 s
  | Hartree multipole summation                :        0.004 s           0.004 s
  | Integration                                :        0.008 s           0.009 s
  | Solution of K.-S. eqns.                    :        0.001 s           0.001 s
  | Total energy evaluation                    :        0.000 s           0.001 s
------------------------------------------------------------

------------------------------------------------------------
          Begin self-consistency iteration #   25

  Date     :  20220120, Time     :  153839.423
------------------------------------------------------------
  Evaluating new KS density.
  Integration grid: deviation in total charge (<rho> - N_e) =  -1.253309E-11
  | <rho_up-rho_dn> = N_up-N_dn =      0.0000; <|rho_up-rho_dn|> =      0.0000
  Pulay mixing of updated and previous charge densities.

  Evaluating partitioned Hartree potential by multipole expansion.
  | Analytical far-field extrapolation by fixed multipoles:
  | Hartree multipole sum: apparent total charge =   0.239983E-05
  Summing up the Hartree potential.
  Time summed over all CPUs for potential: real work        0.030 s, elapsed        0.030 s
  | RMS charge density error from multipole expansion :   0.279737E-02

  Integrating Hamiltonian matrix: batch-based integration.
  Time summed over all CPUs for integration: real work        0.064 s, elapsed        0.067 s

  Updating Kohn-Sham eigenvalues, eigenvectors, occupation numbers, and Fermi level.
  Solving generalized eigenproblem
  Solving real symmetric generalised eigenvalue problem by standard ScaLAPACK.
  Using Cholesky factor for transformation
  Using 1-stage real ELPA solver
  Solving real symmetric generalised eigenvalue problem by standard ScaLAPACK.
  Using Cholesky factor for transformation
  Using 1-stage real ELPA solver
  Determining occupation numbers for Kohn-Sham eigenstates.
  | Chemical potential (Fermi level) in eV                 : -.10694089E+02
  | Error in electron count due to remaining E_F inaccuracy: 0.00000000E+00
  | Maximum occupation number of highest empty state:  0.00E+00

  Current spin moment of the entire structure :
  | N = N_up - N_down :    0.00
  | S                 :    0.00
  | J                 :    1.00

  Highest occupied state (VBM) at    -12.44149887 eV
  | Occupation number:      1.00000000
  | Spin channel:        1

  Lowest unoccupied state (CBM) at     1.24238438 eV
  | Occupation number:      0.00000000
  | Spin channel:        1

  Overall HOMO-LUMO gap:     13.68388324 eV.

  Total energy components:
  | Sum of eigenvalues            :          -0.91443338 Ha         -24.88299825 eV
  | XC energy correction          :          -0.82674219 Ha         -22.49679960 eV
  | XC potential correction       :           1.06069754 Ha          28.86304853 eV
  | Free-atom electrostatic energy:           0.16855006 Ha           4.58648062 eV
  | Hartree energy correction     :          -0.47495924 Ha         -12.92429846 eV
  | van der Waals energy corr.    :           0.00000000 Ha           0.00000000 eV
  | Entropy correction            :           0.00000000 Ha           0.00000000 eV
  | ---------------------------
  | Total energy                  :          -0.98688720 Ha         -26.85456715 eV
  | Total energy, T -> 0          :          -0.98688720 Ha         -26.85456715 eV  <-- do not rely on this value for anything but (periodic) metals
  | Electronic free energy        :          -0.98688720 Ha         -26.85456715 eV

  Derived energy quantities:
  | Kinetic energy                :           1.62660178 Ha          44.26208657 eV
  | Electrostatic energy          :          -1.78674680 Ha         -48.61985413 eV
  | Energy correction for multipole
  | error in Hartree potential    :           0.00018997 Ha           0.00516943 eV
  | Sum of eigenvalues per atom                           :         -12.44149912 eV
  | Total energy (T->0) per atom                          :         -13.42728358 eV  <-- do not rely on this value for anything but (periodic) metals
  | Electronic free energy per atom                       :         -13.42728358 eV

  Self-consistency convergence accuracy:
  | Change of charge/spin density : 0.3689E-06 0.2681E-06
  | Change of sum of eigenvalues  : 0.2596E-05 eV
  | Change of total energy        : -.8622E-09 eV

  Writing Kohn-Sham eigenvalues.

  Spin-up eigenvalues:

  State    Occupation    Eigenvalue [Ha]    Eigenvalue [eV]
      1       1.00000          -0.457217          -12.44150
      2       0.00000           0.045657            1.24238
      3       0.00000           0.051451            1.40005
      4       0.00000           0.221248            6.02047
      5       0.00000           0.346095            9.41773
      6       0.00000           0.354143            9.63671
      7       0.00000           0.354143            9.63671
      8       0.00000           0.730211           19.87005
      9       0.00000           0.765805           20.83861
     10       0.00000           0.765805           20.83861
     11       0.00000           0.827222           22.50987

  Spin-down eigenvalues:

  State    Occupation    Eigenvalue [Ha]    Eigenvalue [eV]
      1       1.00000          -0.457217          -12.44150
      2       0.00000           0.045672            1.24281
      3       0.00000           0.051470            1.40058
      4       0.00000           0.221271            6.02108
      5       0.00000           0.346112            9.41819
      6       0.00000           0.354143            9.63671
      7       0.00000           0.354143            9.63671
      8       0.00000           0.730218           19.87024
      9       0.00000           0.765805           20.83862
     10       0.00000           0.765805           20.83862
     11       0.00000           0.827223           22.50988

  Current spin moment of the entire structure :
  | N = N_up - N_down :    0.00
  | S                 :    0.00
  | J                 :    1.00

  Highest occupied state (VBM) at    -12.44149887 eV
  | Occupation number:      1.00000000
  | Spin channel:        1

  Lowest unoccupied state (CBM) at     1.24238438 eV
  | Occupation number:      0.00000000
  | Spin channel:        1

  Overall HOMO-LUMO gap:     13.68388324 eV.

  Self-consistency cycle converged.

  End self-consistency iteration #    25       :  max(cpu_time)    wall_clock(cpu1)
  | Time for this iteration                    :        0.023 s           0.023 s
  | Charge density update                      :        0.006 s           0.005 s
  | Density mixing                             :        0.002 s           0.001 s
  | Hartree multipole update                   :        0.001 s           0.002 s
  | Hartree multipole summation                :        0.004 s           0.004 s
  | Integration                                :        0.008 s           0.008 s
  | Solution of K.-S. eqns.                    :        0.001 s           0.001 s
  | Total energy evaluation                    :        0.000 s           0.000 s
------------------------------------------------------------
  Obtaining max. number of non-zero basis functions in each batch .
  Evaluating KS electron density on previously omitted grid points.
  Evaluating non-empirical van der Waals correction (Tkatchenko/Scheffler 2009).
  Performing Hirshfeld analysis of fragment charges and moments.
  ----------------------------------------------------------------------
  | Atom     1: H
  |   Hirshfeld charge        :     -0.00000055
  |   Free atom volume        :     10.31539447
  |   Hirshfeld volume        :      3.67124383
  |   Hirshfeld spin moment   :      0.00000041
  |   Hirshfeld dipole vector :      0.00000000      -0.00000000      -0.05775593
  |   Hirshfeld dipole moment :      0.05775593
  |   Hirshfeld second moments:      0.17241030      -0.00000000      -0.00000000
  |                                 -0.00000000       0.17241030       0.00000000
  |                                 -0.00000000       0.00000000       0.16649971
  ----------------------------------------------------------------------
  | Atom     2: H
  |   Hirshfeld charge        :     -0.00000055
  |   Free atom volume        :     10.31539447
  |   Hirshfeld volume        :      3.67124383
  |   Hirshfeld spin moment   :      0.00000041
  |   Hirshfeld dipole vector :      0.00000000      -0.00000000       0.05775593
  |   Hirshfeld dipole moment :      0.05775593
  |   Hirshfeld second moments:      0.17241030      -0.00000000      -0.00000000
  |                                 -0.00000000       0.17241030       0.00000000
  |                                 -0.00000000       0.00000000       0.16649971
  ----------------------------------------------------------------------


  Total energy components:
  | Sum of eigenvalues            :          -0.91443338 Ha         -24.88299825 eV
  | XC energy correction          :          -0.82674219 Ha         -22.49679960 eV
  | XC potential correction       :           1.06069754 Ha          28.86304853 eV
  | Free-atom electrostatic energy:           0.16855006 Ha           4.58648062 eV
  | Hartree energy correction     :          -0.47495924 Ha         -12.92429846 eV
  | van der Waals energy corr.    :          -0.00000033 Ha          -0.00000909 eV
  | Entropy correction            :           0.00000000 Ha           0.00000000 eV
  | ---------------------------
  | Total energy                  :          -0.98688754 Ha         -26.85457625 eV
  | Total energy, T -> 0          :          -0.98688754 Ha         -26.85457625 eV  <-- do not rely on this value for anything but (periodic) metals
  | Electronic free energy        :          -0.98688754 Ha         -26.85457625 eV

  Derived energy quantities:
  | Kinetic energy                :           1.62660178 Ha          44.26208657 eV
  | Electrostatic energy          :          -1.78674680 Ha         -48.61985413 eV
  | Energy correction for multipole
  | error in Hartree potential    :           0.00018997 Ha           0.00516943 eV
  | Sum of eigenvalues per atom                           :         -12.44149912 eV
  | Total energy (T->0) per atom                          :         -13.42728812 eV  <-- do not rely on this value for anything but (periodic) metals
  | Electronic free energy per atom                       :         -13.42728812 eV
  Timings for VdW correction (Tkatchenko-Scheffler 2009 or later):
  | CPU time:        0.003 s, Wall clock time:        0.003 s.

  Energy and forces in a compact form:
  | Total energy uncorrected      :         -0.268545762467504E+02 eV
  | Total energy corrected        :         -0.268545762467504E+02 eV  <-- do not rely on this value for anything but (periodic) metals
  | Electronic free energy        :         -0.268545762467504E+02 eV

  ------------------------------------ 
  Start decomposition of the XC Energy 
  ------------------------------------ 
  Hartree-Fock part   :          0.000000000 Ha              0.000000000 eV
  ------------------------------------ 
  X Energy            :         -0.782902859 Ha            -21.303870718 eV
  C Energy GGA        :         -0.043839330 Ha             -1.192928878 eV
  Total XC Energy     :         -0.826742189 Ha            -22.496799596 eV
  LDA X and C from self-consistent density 
  X Energy LDA        :         -0.685557477 Ha            -18.654968100 eV
  C Energy LDA        :         -0.101965435 Ha             -2.774620665 eV
  ------------------------------------ 
  End decomposition of the XC Energy 
  ------------------------------------ 

------------------------------------------------------------------------------
  Final output of selected total energy values:

  The following output summarizes some interesting total energy values
  at the end of a run (AFTER all relaxation, molecular dynamics, etc.).

  | Total energy of the DFT / Hartree-Fock s.c.f. calculation      :            -26.854576247 eV
  | Final zero-broadening corrected energy (caution - metals only) :            -26.854576247 eV
  | For reference only, the value of 1 Hartree used in FHI-aims is :             27.211384500 eV

  Before relying on these values, please be sure to understand exactly which
  total energy value is referred to by a given number. Different objects may
  all carry the same name 'total energy'. Definitions:

  Total energy of the DFT / Hartree-Fock s.c.f. calculation:
  | Note that this energy does not include ANY quantities calculated after the
  | s.c.f. cycle, in particular not ANY RPA, MP2, etc. many-body perturbation terms.

  Final zero-broadening corrected energy:
  | For metallic systems only, a broadening of the occupation numbers at the Fermi
  | level can be extrapolated back to zero broadening by an electron-gas inspired
  | formula. For all systems that are not real metals, this value can be
  | meaningless and should be avoided.

------------------------------------------------------------------------------

------------------------------------------------------------
          Leaving FHI-aims.
          Date     :  20220120, Time     :  153839.454

          Computational steps:
          | Number of self-consistency cycles          :           25

          Detailed time accounting                     :  max(cpu_time)    wall_clock(cpu1)
          | Total time                                 :        0.731 s           0.796 s
          | Preparation time                           :        0.068 s           0.069 s
          | Grid partitioning                          :        0.006 s           0.006 s
          | Preloading free-atom quantities on grid    :        0.003 s           0.003 s
          | Free-atom superposition energy             :        0.002 s           0.002 s
          | Total time for integrations                :        0.218 s           0.220 s
          | Total time for solution of K.-S. equations :        0.037 s           0.040 s
          | Total time for density update              :        0.144 s           0.127 s
          | Total time for mixing                      :        0.036 s           0.040 s
          | Total time for Hartree multipole update    :        0.030 s           0.030 s
          | Total time for Hartree multipole sum       :        0.101 s           0.101 s
          | Total time for total energy evaluation     :        0.004 s           0.018 s
          | Total time for scaled ZORA corrections     :        0.000 s           0.000 s
          | Total time for vdW correction              :        0.003 s           0.003 s

          Have a nice day.
------------------------------------------------------------
