  MPI-parallelism will be employed.
------------------------------------------------------------
          Invoking FHI-aims ...
          Version 052014
          Git rev. (modified): 096c982 Merge branch master of fhiaims:/pub/localo[...]
          Compiled on 2016/12/16 at 15:22:01 on host login02.hpc.iitd.ac.in.

          When using FHI-aims, please cite the following reference:

          Volker Blum, Ralf Gehrke, Felix Hanke, Paula Havu,
          Ville Havu, Xinguo Ren, Karsten Reuter, and Matthias Scheffler,
          'Ab Initio Molecular Simulations with Numeric Atom-Centered Orbitals: FHI-aims',
          Computer Physics Communications 180, 2175-2196 (2009)

          For any questions about FHI-aims, please visit the aimsclub website
          with its forums and wiki. Contributions to both the forums and the
          wiki are warmly encouraged - they are for you, and everyone is welcome there.

------------------------------------------------------------

  Date     :  20220120, Time     :  152727.494
  Time zero on CPU 1             :   0.138740000000000E-01  s.
  Internal wall clock time zero  :           411924447.494  s.

  Using        8 parallel tasks.
  Task        0 on host csky021 reporting.
  Task        1 on host csky021 reporting.
  Task        2 on host csky021 reporting.
  Task        3 on host csky021 reporting.
  Task        4 on host csky021 reporting.
  Task        5 on host csky021 reporting.
  Task        6 on host csky021 reporting.
  Task        7 on host csky021 reporting.

  Performing system and environment tests:
  | Environment variable OMP_NUM_THREADS correctly set to 1.
  | Stacksize not measured: no C compiler
  | Checking for scalapack...
  | Testing pdtran()...
  | All pdtran() tests passed.

  Obtaining array dimensions for all initial allocations:
  
  -----------------------------------------------------------------------
  Parsing control.in (first pass over file, find array dimensions only).
  The contents of control.in will be repeated verbatim below
  unless switched off by setting 'verbatim_writeout .false.' .
  in the first line of control.in .
  -----------------------------------------------------------------------
  
    xc               pbe
    spin             collinear
    default_initial_moment hund
    relativistic     atomic_zora scalar 1e-9
    occupation_type  gaussian 0.001
    charge        0
    vdw_correction_hirshfeld
    KS_method        scalapack_fast
    mixer            pulay
    charge_mix_param  0.4
    spin_mix_param    0.6
    sc_accuracy_rho  1E-4
    sc_accuracy_eev  1E-5
    sc_accuracy_etot 1E-5
    sc_iter_limit    100
    empty_states     10
  ################################################################################
  #
  #  FHI-aims code project
  # Volker Blum, Fritz Haber Institute Berlin, 2009
  #
  #  Suggested "tight" defaults for H atom (to be pasted into control.in file)
  #
  ################################################################################
    species        H
  #     global species definitions
      nucleus             1
      mass                1.00794
  #
      l_hartree           6
  #
      cut_pot             4.0  2.0  1.0
      basis_dep_cutoff    1e-4
  #
      radial_base         24 7.0
      radial_multiplier   2
      angular_grids       specified
        division   0.1930   50
        division   0.3175  110
        division   0.4293  194
        division   0.5066  302
        division   0.5626  434
  #      division   0.5922  590
  #      division   0.6227  974
  #      division   0.6868 1202
  #      outer_grid  770
        outer_grid  434
  ################################################################################
  #
  #  Definition of "minimal" basis
  #
  ################################################################################
  #     valence basis states
      valence      1  s   1.
  #     ion occupancy
      ion_occ      1  s   0.5
  ################################################################################
  #
  #  Suggested additional basis functions. For production calculations,
  #  uncomment them one after another (the most important basis functions are
  #  listed first).
  #
  #  Basis constructed for dimers: 0.5 A, 0.7 A, 1.0 A, 1.5 A, 2.5 A
  #
  ################################################################################
  #  "First tier" - improvements: -1014.90 meV to -62.69 meV
       hydro 2 s 2.1
       hydro 2 p 3.5
  #  "Second tier" - improvements: -12.89 meV to -1.83 meV
       hydro 1 s 0.85
       hydro 2 p 3.7
       hydro 2 s 1.2
       hydro 3 d 7
  #  "Third tier" - improvements: -0.25 meV to -0.12 meV
  #     hydro 4 f 11.2
  #     hydro 3 p 4.8
  #     hydro 4 d 9
  #     hydro 3 s 3.2
  ################################################################################
  #
  # For methods that use the localized form of the "resolution of identity" for
  # the two-electron Coulomb operator (RI_method LVL), particularly Hartree-Fock and
  # hybrid density functional calculations, the highest accuracy can be obtained by
  # uncommenting the line beginning with "for_aux"  below, thus adding an extra g radial
  # function to the construction of the product basis set for the expansion.
  # See Ref. New J. Phys. 17, 093020 (2015) for more information, particularly Figs. 1 and 6.
  #
  ################################################################################
  #
  # for_aux hydro 5 g 6.0
  
  -----------------------------------------------------------------------
  Completed first pass over input file control.in .
  -----------------------------------------------------------------------
  
  
  -----------------------------------------------------------------------
  Parsing geometry.in (first pass over file, find array dimensions only).
  The contents of geometry.in will be repeated verbatim below
  unless switched off by setting 'verbatim_writeout .false.' .
  in the first line of geometry.in .
  -----------------------------------------------------------------------
  
  atom 0 0 0 H
  atom 0 0 0.9 H
  
  -----------------------------------------------------------------------
  Completed first pass over input file geometry.in .
  -----------------------------------------------------------------------
  

  Basic array size parameters:
  | Number of species                 :        1
  | Number of atoms                   :        2
  | Max. basis fn. angular momentum   :        2
  | Max. atomic/ionic basis occupied n:        1
  | Max. number of basis fn. types    :        2
  | Max. radial fns per species/type  :        6
  | Max. logarithmic grid size        :     1131
  | Max. radial integration grid size :       49
  | Max. angular integration grid size:      434
  | Max. angular grid division number :        8
  | Radial grid for Hartree potential :     1131
  | Number of spin channels           :        2

------------------------------------------------------------
          Reading file control.in.
------------------------------------------------------------
  XC: Using PBE gradient-corrected functionals.
  Spin treatment: Spin density functional theory - collinear spins.
  Initial spin moment per atom set according to Hund's rules.
  Scalar relativistic treatment of kinetic energy: on-site free-atom approximation to ZORA.
  Occupation type: Gaussian broadening, width =   0.100000E-02 eV.
  Charge =   0.000000E+00: Neutral system requested explicitly.
  Using non-empirical van der Waals correction (Hirshfeld partitioning):
  Kohn-Sham eigenvalues and eigenfunctions calculated by the ELPA eigensolver library.
  Using pulay charge density mixing.
  Charge density mixing - mixing parameter:     0.4000
  Spin density mixing - mixing parameter:     0.6000
  Convergence accuracy of self-consistent charge density: 0.1000E-03
  Convergence accuracy of sum of eigenvalues: 0.1000E-04
  Convergence accuracy of total energy: 0.1000E-04
  Maximum number of s.-c. iterations  :   100
  Number of empty states per atom:       10
 
  Reading configuration options for species H                   .
  | Found nuclear charge :   1.0000
  | Found atomic mass :    1.00794000000000      amu
  | Found l_max for Hartree potential  :   6
  | Found cutoff potl. onset [A], width [A], scale factor :    4.00000    2.00000    1.00000
  | Threshold for basis-dependent cutoff potential is   0.100000E-03
  | Found data for basic radial integration grid :    24 points, outermost radius =    7.000 A
  | Found multiplier for basic radial grid :   2
  | Found angular grid specification: user-specified.
  | Specified grid contains     6 separate shells.
  | Check grid settings after all constraints further below.
  | Found free-atom valence shell :  1 s   1.000
  | No ionic wave fns used. Skipping ion_occ.
  | Found hydrogenic basis function :  2 s   2.100
  | Found hydrogenic basis function :  2 p   3.500
  | Found hydrogenic basis function :  1 s   0.850
  | Found hydrogenic basis function :  2 p   3.700
  | Found hydrogenic basis function :  2 s   1.200
  | Found hydrogenic basis function :  3 d   7.000
  Species H                   : Missing cutoff potential type.
  Defaulting to exp(1/x)/(1-x)^2 type cutoff potential.
  Species H : No 'logarithmic' tag. Using default grid for free atom:
  | Default logarithmic grid data [bohr] : 0.1000E-03 0.1000E+03 0.1012E+01
  Species H : On-site basis accuracy parameter (for Gram-Schmidt orthonormalisation) not specified.
  Using default value basis_acc =  0.1000000E-03.
  Species H                   : Using default innermost maximum threshold i_radial=  2 for radial functions.
  Species H                   : Default cutoff onset for free atom density etc. : 0.40000000E+01 AA.
  Species H                   : Basic radial grid will be enhanced according to radial_multiplier =   2, to contain    49 grid points.
 
  Finished reading input file 'control.in'. Consistency checks are next.
 
  Target number of points in a grid batch is not set. Defaulting to  100
  Method for grid partitioning is not set. Defaulting to parallel hash+maxmin partitioning.
  Batch size limit is not set. Defaulting to    200
  By default, will store active basis functions for each batch.
  If in need of memory, prune_basis_once .false. can be used to disable this option.
  communication_type for Hartree potential was not specified.
  Defaulting to calc_hartree .
  Pulay mixer: Number of relevant iterations not set.
  Defaulting to    8 iterations.
  Pulay mixer: Number of initial linear mixing iterations not set.
  Defaulting to    0 iterations.
  Work space size for distributed Hartree potential not set.
  Defaulting to   0.200000E+03 MB.
  Algorithm-dependent basis array size parameters:
  | n_max_pulay                         :        8
  Calculation of forces was not defined in control.in. No forces will be calculated.
  Geometry relaxation not requested: no relaxation will be performed.
  No accuracy limit for integral partition fn. given. Defaulting to 0.1000E-14.
  No threshold value for u(r) in integrations given. Defaulting to 0.1000E-05.
  No accuracy for occupation numbers given. Defaulting to 0.1000E-07.
  No threshold value for occupation numbers given. Defaulting to 0.0000E+00.
  No accuracy for fermi level given. Defaulting to 0.1000E-19.
  Maximum # of iterations to find E_F not set. Defaulting to  200.
  Will not use alltoall communication since running on < 1024 CPUs.
  Threshold for basis singularities not set.
  Default threshold for basis singularities: 0.1000E-04
  partition_type (choice of integration weights) for integrals was not specified.
  | Using a version of the partition function of Stratmann and coworkers ('stratmann_smoother').
  | At each grid point, the set of atoms used to build the partition table is smoothly restricted to
  | only those atoms whose free-atom density would be non-zero at that grid point.
  Partitioning for Hartree potential was not defined. Using partition_type for integrals.
  | Adjusted default value of keyword multip_moments_threshold to:       0.10000000E-11
  | This value may affect high angular momentum components of the Hartree potential in periodic systems.
  No q(lm)/r^(l+1) cutoff set for long-range Hartree potential.
  | Using default value of  0.100000E-09 .
  | Verify using the multipole_threshold keyword.
  Defaulting to new monopole extrapolation.
  Density update method: automatic selection selected.
------------------------------------------------------------


------------------------------------------------------------
          Reading geometry description geometry.in.
------------------------------------------------------------
  Input structure read successfully.
  The structure contains        2 atoms,  and a total of          2.000 electrons.

  Input geometry:
  | No unit cell requested.
  | Atomic structure:
  |       Atom                x [A]            y [A]            z [A]
  |    1: Species H              0.000000         0.000000         0.000000
  |    2: Species H              0.000000         0.000000         0.900000
  |

  | The smallest distance between any two atoms is         0.90000000 AA.
  |
  | The first atom of this pair is atom number                      1 .
  | The second atom of this pair is atom number                     2 .

  Initial moments and charges:
  |  Atom   Moment         Charge        Species
  |     1  (Hund's rule)   0.000000E+00   H
  |     2  (Hund's rule)   0.000000E+00   H

  Structure-dependent array size parameters: 
  | Number of distinct atom types in initial rho :        1
  | Maximum number of distinct radial functions  :        7
  | Maximum number of basis functions            :       30
  | Number of Kohn-Sham states (occupied + empty):       11
------------------------------------------------------------

------------------------------------------------------------
          Preparing all fixed parts of the calculation.
------------------------------------------------------------
  Determining machine precision:
    2.225073858507201E-308
  Setting up grids for atomic and cluster calculations.

  Creating wave function, potential, and density for free atoms.

  Species: H

  List of occupied orbitals and eigenvalues:
    n    l              occ      energy [Ha]    energy [eV]
    1    0           1.0000        -0.238386        -6.4868

  Spin-polarized or charged system:
  Charge density initialized according to selected moments and charges.

  Creating spin-polarized density from free atoms.

  Species: H
  Charge:   0.000000
  applying Hund's rules ...

  List of occupied orbitals and eigenvalues:
    n    l      energy [Ha]    energy [eV]    occupation
  Spin-up
    1    0        -0.278991        -7.5917     1.00000000
  Spin-down
    1    0         0.090850         2.4721     0.00000000

  Creating fixed part of basis set: Ionic, confined, hydrogenic.
 
  H                    hydrogenic:
 
  List of hydrogenic basis orbitals: 
    n    l      effective z      eigenvalue [eV]  inner max. [A]     outer max. [A]     outer radius [A]   
    2    0         2.100000       -14.9965           0.193243           1.317208           5.373006
    2    1         3.500000       -41.6672           0.602369           0.602369           4.056063
    1    0         0.850000        -9.8292           0.624871           0.624871           5.373006
    2    1         3.700000       -46.5653           0.573622           0.573622           3.910002
    2    0         1.200000        -4.5995           0.334980           2.228188           5.505995
    3    2         7.000000       -74.0753           0.680699           0.680699           3.769201
 

  Adding cutoff potential to free-atom effective potential.
  Creating atomic-like basis functions for current effective potential.

  Species H                   :

  List of atomic basis orbitals and eigenvalues:
    n    l      energy [Ha]    energy [eV]    outer radius [A]
    1    0        -0.238386        -6.4868       5.373006

  Assembling full basis from fixed parts.
  | Species H :   atomic orbital   1 s accepted.
  | Species H :    hydro orbital   2 s accepted.
  | Species H :    hydro orbital   1 s accepted.
  | Species H :    hydro orbital   2 s accepted.
  | Species H :    hydro orbital   2 p accepted.
  | Species H :    hydro orbital   2 p accepted.
  | Species H :    hydro orbital   3 d accepted.
 
  Basis size parameters after reduction:
  | Total number of radial functions:        7
  | Total number of basis functions :       30
 
  Testing on-site integration grid accuracy.
  |  Species  Function  <phi|h_atom|phi> (log., in eV)  <phi|h_atom|phi> (rad., in eV)
           1        1                 -6.4870767962                 -6.4871688290
           1        2                 13.5032046589                 13.5028982997
           1        3                 32.8195184817                 32.8119941656
           1        4                 33.8513856511                 33.7670005767 ***
           1        5                 28.8544614965                 28.8544615203
           1        6                 59.6326952547                 59.6327656460
           1        7                 60.2719308513                 60.2719305949
 * Note: Onsite integrals marked "***" above are less accurate than
 * onsite_accuracy_threshold =    0.03000 eV. Usually, this is harmless.
 * When in doubt, tighten the "radial" and/or "radial_multiplier" flags to check.

  Preparing densities etc. for the partition functions (integrals / Hartree potential).

  Preparations completed.
  max(cpu_time)          :      0.080 s.
  Wall clock time (cpu1) :      0.081 s.
------------------------------------------------------------

------------------------------------------------------------
          Begin self-consistency loop: Initialization.

          Date     :  20220120, Time     :  152727.652
------------------------------------------------------------

  Initializing index lists of integration centers etc. from given atomic structure:
  | Number of centers in hartree potential         :         2
  | Number of centers in hartree multipole         :         2
  | Number of centers in electron density summation:         2
  | Number of centers in basis integrals           :         2
  | Number of centers in integrals                 :         2
  Using modified Scalapack Eigenvalue solver (ELPA)
  * Using 8 tasks for Scalapack Eigenvalue solver.
  Detailed listing of tasks and assigned k-points:
  (for non-periodic systems, the "k-point" denotes an internal label only)
   Task     0 k-point     1 on csky021
   Task     1 k-point     1 on csky021
   Task     2 k-point     1 on csky021
   Task     3 k-point     1 on csky021
   Task     4 k-point     1 on csky021
   Task     5 k-point     1 on csky021
   Task     6 k-point     1 on csky021
   Task     7 k-point     1 on csky021
  Tasks:     8 split into      4 X      2 BLACS grid
  Calculating blocksize based on n_basis =           30 max_nprow =            4 max_npcol =            2
  Scalapack blocksize set to:            4
  Required Scalapack workspace - INTEGER:            1 REAL:             1
  Partitioning the integration grid into batches with parallel hashing+maxmin method.
  | Number of batches:      445
  | Maximal batch size:     197
  | Minimal batch size:      49
  | Average batch size:      64.944
  | Standard deviation of batch sizes:      18.519

  Integration load balanced across     8 MPI tasks.
  Work distribution over tasks is as follows:
  Task     0 has       3674 integration points.
  Task     1 has       3591 integration points.
  Task     2 has       3595 integration points.
  Task     3 has       3583 integration points.
  Task     4 has       3584 integration points.
  Task     5 has       3590 integration points.
  Task     6 has       3660 integration points.
  Task     7 has       3623 integration points.
  Initializing partition tables, free-atom densities, potentials, etc. across the integration grid (initialize_grid_storage).
  | initialize_grid_storage: Actual outermost partition radius vs. multipole_radius_free
  | (-- VB: in principle, multipole_radius_free should be larger, hence this output)
  | Species        1: outer_partition_radius =              6.000000000000000 AA, multipole_radius_free =              6.071692442739658 AA.
  | Original list of interatomic distances with           2 x          2 entries is created.
  | Net number of integration points:    28900
  | of which are non-zero points    :    26904
  Obtaining max. number of non-zero basis functions in each batch (get_n_compute_maxes).
  | Maximal number of non-zero basis functions:       30 in task     0
  | Maximal number of non-zero basis functions:       30 in task     1
  | Maximal number of non-zero basis functions:       30 in task     2
  | Maximal number of non-zero basis functions:       30 in task     3
  | Maximal number of non-zero basis functions:       30 in task     4
  | Maximal number of non-zero basis functions:       30 in task     5
  | Maximal number of non-zero basis functions:       30 in task     6
  | Maximal number of non-zero basis functions:       30 in task     7
  Selecting the method for density update.
  Loop over occupied states selected for charge density update.
  Integrating Hamiltonian matrix: batch-based integration.
  Time summed over all CPUs for integration: real work        0.086 s, elapsed        0.095 s
  Integrating overlap matrix.
  Time summed over all CPUs for integration: real work        0.021 s, elapsed        0.029 s
  Deallocating overlap matrix.

  Updating Kohn-Sham eigenvalues, eigenvectors, occupation numbers, and Fermi level.
  Solving generalized eigenproblem
  Solving real symmetric generalised eigenvalue problem by standard ScaLAPACK.
  Transforming overlap matrix with ScaLAPACK and checking for singularities.
  : Overlap matrix is nonsingular, using Cholesky decomposition
  | Lowest eigenvalue:  0.697113E-03
  Factoring overlap matrix with Cholesky decomposition
  Using Cholesky factor for transformation
  Using 1-stage real ELPA solver
  Solving real symmetric generalised eigenvalue problem by standard ScaLAPACK.
  Using Cholesky factor for transformation
  Using 1-stage real ELPA solver
  Determining occupation numbers for Kohn-Sham eigenstates.
  | Chemical potential (Fermi level) in eV                 : -.21389212E+01
  | Error in electron count due to remaining E_F inaccuracy: 0.00000000E+00
  | Maximum occupation number of highest empty state:  0.00E+00

  Writing Kohn-Sham eigenvalues.

  Spin-up eigenvalues:

  State    Occupation    Eigenvalue [Ha]    Eigenvalue [eV]
      1       1.00000          -0.523796          -14.25322
      2       1.00000          -0.089380           -2.43216
      3       0.00000           0.014686            0.39963
      4       0.00000           0.092484            2.51661
      5       0.00000           0.216898            5.90208
      6       0.00000           0.216898            5.90208
      7       0.00000           0.318044            8.65441
      8       0.00000           0.429507           11.68748
      9       0.00000           0.608942           16.57017
     10       0.00000           0.642050           17.47106
     11       0.00000           0.642050           17.47106

  Spin-down eigenvalues:

  State    Occupation    Eigenvalue [Ha]    Eigenvalue [eV]
      1       0.00000           0.099377            2.70419
      2       0.00000           0.116177            3.16134
      3       0.00000           0.504057           13.71608
      4       0.00000           0.542147           14.75257
      5       0.00000           1.131991           30.80304
      6       0.00000           1.131991           30.80304
      7       0.00000           1.275814           34.71665
      8       0.00000           1.506333           40.98940
      9       0.00000           1.506333           40.98940
     10       0.00000           1.540262           41.91266
     11       0.00000           1.623602           44.18046

  Current spin moment of the entire structure :
  | N = N_up - N_down :    2.00
  | S                 :    1.00
  | J                 :    3.00

  Highest occupied state (VBM) at     -2.43216131 eV
  | Occupation number:      1.00000000
  | Spin channel:        1

  Lowest unoccupied state (CBM) at     0.39963278 eV
  | Occupation number:      0.00000000
  | Spin channel:        1

  Overall HOMO-LUMO gap:      2.83179410 eV.
  Calculating total energy contributions from superposition of free atom densities.

  Total energy components:
  | Sum of eigenvalues            :          -0.61317654 Ha         -16.68538271 eV
  | XC energy correction          :          -0.67047412 Ha         -18.24452912 eV
  | XC potential correction       :           0.86434399 Ha          23.51999677 eV
  | Free-atom electrostatic energy:          -0.43447709 Ha         -11.82272310 eV
  | Hartree energy correction     :           0.00000000 Ha           0.00000000 eV
  | van der Waals energy corr.    :           0.00000000 Ha           0.00000000 eV
  | Entropy correction            :           0.00000000 Ha           0.00000000 eV
  | ---------------------------
  | Total energy                  :          -0.85378376 Ha         -23.23263816 eV
  | Total energy, T -> 0          :          -0.85378376 Ha         -23.23263816 eV  <-- do not rely on this value for anything but (periodic) metals
  | Electronic free energy        :          -0.85378376 Ha         -23.23263816 eV

  Derived energy quantities:
  | Kinetic energy                :           1.13762239 Ha          30.95628037 eV
  | Electrostatic energy          :          -1.32093203 Ha         -35.94438941 eV
  | Energy correction for multipole
  | error in Hartree potential    :           0.00000000 Ha           0.00000000 eV
  | Sum of eigenvalues per atom                           :          -8.34269135 eV
  | Total energy (T->0) per atom                          :         -11.61631908 eV  <-- do not rely on this value for anything but (periodic) metals
  | Electronic free energy per atom                       :         -11.61631908 eV
  Initialize hartree_potential_storage
  Max. number of atoms included in rho_multipole:            2

  End scf initialization - timings             :  max(cpu_time)    wall_clock(cpu1)
  | Time for scf. initialization               :        0.044 s           0.044 s
  | Boundary condition initialization          :        0.000 s           0.000 s
  | Integration                                :        0.016 s           0.016 s
  | Solution of K.-S. eqns.                    :        0.008 s           0.008 s
  | Grid partitioning                          :        0.008 s           0.007 s
  | Preloading free-atom quantities on grid    :        0.004 s           0.003 s
  | Free-atom superposition energy             :        0.003 s           0.003 s
  | Total energy evaluation                    :        0.000 s           0.001 s
------------------------------------------------------------

------------------------------------------------------------
          Begin self-consistency iteration #    1

  Date     :  20220120, Time     :  152727.696
------------------------------------------------------------
  Evaluating new KS density.
  Integration grid: deviation in total charge (<rho> - N_e) =   1.876268E-07
  | <rho_up-rho_dn> = N_up-N_dn =      2.0000; <|rho_up-rho_dn|> =      2.0567
  Pulay mixing of updated and previous charge densities.

  Evaluating partitioned Hartree potential by multipole expansion.
  | Analytical far-field extrapolation by fixed multipoles:
  | Hartree multipole sum: apparent total charge =  -0.421812E-05
  Summing up the Hartree potential.
  Time summed over all CPUs for potential: real work        0.035 s, elapsed        0.035 s
  | RMS charge density error from multipole expansion :   0.619838E-03

  Integrating Hamiltonian matrix: batch-based integration.
  Time summed over all CPUs for integration: real work        0.069 s, elapsed        0.073 s

  Updating Kohn-Sham eigenvalues, eigenvectors, occupation numbers, and Fermi level.
  Solving generalized eigenproblem
  Solving real symmetric generalised eigenvalue problem by standard ScaLAPACK.
  Using Cholesky factor for transformation
  Using 1-stage real ELPA solver
  Solving real symmetric generalised eigenvalue problem by standard ScaLAPACK.
  Using Cholesky factor for transformation
  Using 1-stage real ELPA solver
  Determining occupation numbers for Kohn-Sham eigenstates.
  | Chemical potential (Fermi level) in eV                 : -.33322801E+01
  | Error in electron count due to remaining E_F inaccuracy: 0.00000000E+00
  | Maximum occupation number of highest empty state:  0.00E+00

  Writing Kohn-Sham eigenvalues.

  Spin-up eigenvalues:

  State    Occupation    Eigenvalue [Ha]    Eigenvalue [eV]
      1       1.00000          -0.378445          -10.29800
      2       0.00000           0.070971            1.93123
      3       0.00000           0.076131            2.07162
      4       0.00000           0.198648            5.40548
      5       0.00000           0.277331            7.54657
      6       0.00000           0.277331            7.54657
      7       0.00000           0.388727           10.57781
      8       0.00000           0.586553           15.96093
      9       0.00000           0.767073           20.87312
     10       0.00000           0.767073           20.87312
     11       0.00000           0.821089           22.34296

  Spin-down eigenvalues:

  State    Occupation    Eigenvalue [Ha]    Eigenvalue [eV]
      1       1.00000          -0.192423           -5.23609
      2       0.00000           0.091356            2.48592
      3       0.00000           0.094710            2.57718
      4       0.00000           0.252598            6.87353
      5       0.00000           0.384296           10.45724
      6       0.00000           0.384296           10.45724
      7       0.00000           0.463734           12.61885
      8       0.00000           0.685511           18.65371
      9       0.00000           0.854434           23.25032
     10       0.00000           0.854434           23.25032
     11       0.00000           0.856309           23.30135

  Current spin moment of the entire structure :
  | N = N_up - N_down :    0.00
  | S                 :    0.00
  | J                 :    1.00

  Highest occupied state (VBM) at     -5.23608900 eV
  | Occupation number:      1.00000000
  | Spin channel:        2

  Lowest unoccupied state (CBM) at     1.93123257 eV
  | Occupation number:      0.00000000
  | Spin channel:        1

  Overall HOMO-LUMO gap:      7.16732157 eV.

  Total energy components:
  | Sum of eigenvalues            :          -0.57086727 Ha         -15.53408875 eV
  | XC energy correction          :          -0.38999678 Ha         -10.61235246 eV
  | XC potential correction       :           0.50249429 Ha          13.67356521 eV
  | Free-atom electrostatic energy:          -0.43447709 Ha         -11.82272310 eV
  | Hartree energy correction     :          -0.01244075 Ha          -0.33853016 eV
  | van der Waals energy corr.    :           0.00000000 Ha           0.00000000 eV
  | Entropy correction            :           0.00000000 Ha           0.00000000 eV
  | ---------------------------
  | Total energy                  :          -0.90528761 Ha         -24.63412926 eV
  | Total energy, T -> 0          :          -0.90528761 Ha         -24.63412926 eV  <-- do not rely on this value for anything but (periodic) metals
  | Electronic free energy        :          -0.90528761 Ha         -24.63412926 eV

  Derived energy quantities:
  | Kinetic energy                :           0.86679686 Ha          23.58674272 eV
  | Electrostatic energy          :          -1.38208769 Ha         -37.60851952 eV
  | Energy correction for multipole
  | error in Hartree potential    :          -0.00015623 Ha          -0.00425136 eV
  | Sum of eigenvalues per atom                           :          -7.76704437 eV
  | Total energy (T->0) per atom                          :         -12.31706463 eV  <-- do not rely on this value for anything but (periodic) metals
  | Electronic free energy per atom                       :         -12.31706463 eV

  Self-consistency convergence accuracy:
  | Change of charge/spin density : 0.4131E-01 0.4131E-01
  | Change of sum of eigenvalues  : 0.1151E+01 eV
  | Change of total energy        : -.1401E+01 eV

  End self-consistency iteration #     1       :  max(cpu_time)    wall_clock(cpu1)
  | Time for this iteration                    :        0.028 s           0.028 s
  | Charge density update                      :        0.007 s           0.007 s
  | Density mixing                             :        0.001 s           0.001 s
  | Hartree multipole update                   :        0.001 s           0.001 s
  | Hartree multipole summation                :        0.005 s           0.006 s
  | Integration                                :        0.009 s           0.009 s
  | Solution of K.-S. eqns.                    :        0.002 s           0.002 s
  | Total energy evaluation                    :        0.000 s           0.001 s
------------------------------------------------------------

------------------------------------------------------------
          Begin self-consistency iteration #    2

  Date     :  20220120, Time     :  152727.728
------------------------------------------------------------
  Evaluating new KS density.
  Integration grid: deviation in total charge (<rho> - N_e) =   1.125761E-07
  | <rho_up-rho_dn> = N_up-N_dn =     -2.0000; <|rho_up-rho_dn|> =      2.0000
  Pulay mixing of updated and previous charge densities.

  Evaluating partitioned Hartree potential by multipole expansion.
  | Analytical far-field extrapolation by fixed multipoles:
  | Hartree multipole sum: apparent total charge =  -0.414574E-05
  Summing up the Hartree potential.
  Time summed over all CPUs for potential: real work        0.034 s, elapsed        0.035 s
  | RMS charge density error from multipole expansion :   0.591284E-03

  Integrating Hamiltonian matrix: batch-based integration.
  Time summed over all CPUs for integration: real work        0.071 s, elapsed        0.075 s

  Updating Kohn-Sham eigenvalues, eigenvectors, occupation numbers, and Fermi level.
  Solving generalized eigenproblem
  Solving real symmetric generalised eigenvalue problem by standard ScaLAPACK.
  Using Cholesky factor for transformation
  Using 1-stage real ELPA solver
  Solving real symmetric generalised eigenvalue problem by standard ScaLAPACK.
  Using Cholesky factor for transformation
  Using 1-stage real ELPA solver
  Determining occupation numbers for Kohn-Sham eigenstates.
  | Chemical potential (Fermi level) in eV                 : -.56372112E+01
  | Error in electron count due to remaining E_F inaccuracy: 0.00000000E+00
  | Maximum occupation number of highest empty state:  0.00E+00

  Current spin moment of the entire structure :
  | N = N_up - N_down :    0.00
  | S                 :    0.00
  | J                 :    1.00

  Highest occupied state (VBM) at     -6.96878227 eV
  | Occupation number:      1.00000000
  | Spin channel:        2

  Lowest unoccupied state (CBM) at     0.52298531 eV
  | Occupation number:      0.00000000
  | Spin channel:        1

  Overall HOMO-LUMO gap:      7.49176758 eV.

  Total energy components:
  | Sum of eigenvalues            :          -0.73611163 Ha         -20.03061671 eV
  | XC energy correction          :          -0.55544977 Ha         -15.11455727 eV
  | XC potential correction       :           0.71742265 Ha          19.52206367 eV
  | Free-atom electrostatic energy:          -0.43447709 Ha         -11.82272310 eV
  | Hartree energy correction     :          -0.01483647 Ha          -0.40372087 eV
  | van der Waals energy corr.    :           0.00000000 Ha           0.00000000 eV
  | Entropy correction            :           0.00000000 Ha           0.00000000 eV
  | ---------------------------
  | Total energy                  :          -1.02345231 Ha         -27.84955429 eV
  | Total energy, T -> 0          :          -1.02345231 Ha         -27.84955429 eV  <-- do not rely on this value for anything but (periodic) metals
  | Electronic free energy        :          -1.02345231 Ha         -27.84955429 eV

  Derived energy quantities:
  | Kinetic energy                :           0.91512566 Ha          24.90183618 eV
  | Electrostatic energy          :          -1.38312820 Ha         -37.63683320 eV
  | Energy correction for multipole
  | error in Hartree potential    :          -0.00015186 Ha          -0.00413241 eV
  | Sum of eigenvalues per atom                           :         -10.01530836 eV
  | Total energy (T->0) per atom                          :         -13.92477714 eV  <-- do not rely on this value for anything but (periodic) metals
  | Electronic free energy per atom                       :         -13.92477714 eV

  Self-consistency convergence accuracy:
  | Change of charge/spin density : 0.1165E+00 0.2783E+00
  | Change of sum of eigenvalues  : -.4497E+01 eV
  | Change of total energy        : -.3215E+01 eV

  End self-consistency iteration #     2       :  max(cpu_time)    wall_clock(cpu1)
  | Time for this iteration                    :        0.027 s           0.027 s
  | Charge density update                      :        0.007 s           0.006 s
  | Density mixing                             :        0.001 s           0.001 s
  | Hartree multipole update                   :        0.001 s           0.001 s
  | Hartree multipole summation                :        0.005 s           0.005 s
  | Integration                                :        0.010 s           0.010 s
  | Solution of K.-S. eqns.                    :        0.002 s           0.001 s
  | Total energy evaluation                    :        0.000 s           0.000 s
------------------------------------------------------------

------------------------------------------------------------
          Begin self-consistency iteration #    3

  Date     :  20220120, Time     :  152727.758
------------------------------------------------------------
  Evaluating new KS density.
  Integration grid: deviation in total charge (<rho> - N_e) =   1.104133E-07
  | <rho_up-rho_dn> = N_up-N_dn =     -1.9424; <|rho_up-rho_dn|> =      1.9424
  Pulay mixing of updated and previous charge densities.

  Evaluating partitioned Hartree potential by multipole expansion.
  | Analytical far-field extrapolation by fixed multipoles:
  | Hartree multipole sum: apparent total charge =  -0.421024E-05
  Summing up the Hartree potential.
  Time summed over all CPUs for potential: real work        0.034 s, elapsed        0.034 s
  | RMS charge density error from multipole expansion :   0.562500E-03

  Integrating Hamiltonian matrix: batch-based integration.
  Time summed over all CPUs for integration: real work        0.070 s, elapsed        0.075 s

  Updating Kohn-Sham eigenvalues, eigenvectors, occupation numbers, and Fermi level.
  Solving generalized eigenproblem
  Solving real symmetric generalised eigenvalue problem by standard ScaLAPACK.
  Using Cholesky factor for transformation
  Using 1-stage real ELPA solver
  Solving real symmetric generalised eigenvalue problem by standard ScaLAPACK.
  Using Cholesky factor for transformation
  Using 1-stage real ELPA solver
  Determining occupation numbers for Kohn-Sham eigenstates.
  | Chemical potential (Fermi level) in eV                 : -.51403484E+01
  | Error in electron count due to remaining E_F inaccuracy: 0.00000000E+00
  | Maximum occupation number of highest empty state:  0.00E+00

  Current spin moment of the entire structure :
  | N = N_up - N_down :    0.00
  | S                 :    0.00
  | J                 :    1.00

  Highest occupied state (VBM) at     -6.18865522 eV
  | Occupation number:      1.00000000
  | Spin channel:        2

  Lowest unoccupied state (CBM) at     1.00460385 eV
  | Occupation number:      0.00000000
  | Spin channel:        1

  Overall HOMO-LUMO gap:      7.19325907 eV.

  Total energy components:
  | Sum of eigenvalues            :          -0.68588452 Ha         -18.66386739 eV
  | XC energy correction          :          -0.51654259 Ha         -14.05583890 eV
  | XC potential correction       :           0.66684912 Ha          18.14588786 eV
  | Free-atom electrostatic energy:          -0.43447709 Ha         -11.82272310 eV
  | Hartree energy correction     :          -0.00897664 Ha          -0.24426688 eV
  | van der Waals energy corr.    :           0.00000000 Ha           0.00000000 eV
  | Entropy correction            :           0.00000000 Ha           0.00000000 eV
  | ---------------------------
  | Total energy                  :          -0.97903171 Ha         -26.64080842 eV
  | Total energy, T -> 0          :          -0.97903171 Ha         -26.64080842 eV  <-- do not rely on this value for anything but (periodic) metals
  | Electronic free energy        :          -0.97903171 Ha         -26.64080842 eV

  Derived energy quantities:
  | Kinetic energy                :           0.90934874 Ha          24.74463830 eV
  | Electrostatic energy          :          -1.37183787 Ha         -37.32960782 eV
  | Energy correction for multipole
  | error in Hartree potential    :          -0.00014308 Ha          -0.00389340 eV
  | Sum of eigenvalues per atom                           :          -9.33193370 eV
  | Total energy (T->0) per atom                          :         -13.32040421 eV  <-- do not rely on this value for anything but (periodic) metals
  | Electronic free energy per atom                       :         -13.32040421 eV

  Self-consistency convergence accuracy:
  | Change of charge/spin density : 0.1248E+00 0.2666E+00
  | Change of sum of eigenvalues  : 0.1367E+01 eV
  | Change of total energy        : 0.1209E+01 eV

  End self-consistency iteration #     3       :  max(cpu_time)    wall_clock(cpu1)
  | Time for this iteration                    :        0.027 s           0.026 s
  | Charge density update                      :        0.007 s           0.006 s
  | Density mixing                             :        0.001 s           0.001 s
  | Hartree multipole update                   :        0.001 s           0.002 s
  | Hartree multipole summation                :        0.005 s           0.005 s
  | Integration                                :        0.010 s           0.009 s
  | Solution of K.-S. eqns.                    :        0.001 s           0.002 s
  | Total energy evaluation                    :        0.000 s           0.001 s
------------------------------------------------------------

------------------------------------------------------------
          Begin self-consistency iteration #    4

  Date     :  20220120, Time     :  152727.788
------------------------------------------------------------
  Evaluating new KS density.
  Integration grid: deviation in total charge (<rho> - N_e) =   1.110215E-07
  | <rho_up-rho_dn> = N_up-N_dn =     -1.9566; <|rho_up-rho_dn|> =      1.9566
  Pulay mixing of updated and previous charge densities.

  Evaluating partitioned Hartree potential by multipole expansion.
  | Analytical far-field extrapolation by fixed multipoles:
  | Hartree multipole sum: apparent total charge =  -0.420713E-05
  Summing up the Hartree potential.
  Time summed over all CPUs for potential: real work        0.034 s, elapsed        0.035 s
  | RMS charge density error from multipole expansion :   0.518307E-03

  Integrating Hamiltonian matrix: batch-based integration.
  Time summed over all CPUs for integration: real work        0.069 s, elapsed        0.074 s

  Updating Kohn-Sham eigenvalues, eigenvectors, occupation numbers, and Fermi level.
  Solving generalized eigenproblem
  Solving real symmetric generalised eigenvalue problem by standard ScaLAPACK.
  Using Cholesky factor for transformation
  Using 1-stage real ELPA solver
  Solving real symmetric generalised eigenvalue problem by standard ScaLAPACK.
  Using Cholesky factor for transformation
  Using 1-stage real ELPA solver
  Determining occupation numbers for Kohn-Sham eigenstates.
  | Chemical potential (Fermi level) in eV                 : -.32520960E+01
  | Error in electron count due to remaining E_F inaccuracy: 0.00000000E+00
  | Maximum occupation number of highest empty state:  0.00E+00

  Current spin moment of the entire structure :
  | N = N_up - N_down :    0.00
  | S                 :    0.00
  | J                 :    1.00

  Highest occupied state (VBM) at     -5.70224120 eV
  | Occupation number:      1.00000000
  | Spin channel:        2

  Lowest unoccupied state (CBM) at     1.21835528 eV
  | Occupation number:      0.00000000
  | Spin channel:        1

  Overall HOMO-LUMO gap:      6.92059648 eV.

  Total energy components:
  | Sum of eigenvalues            :          -0.57752801 Ha         -15.71533668 eV
  | XC energy correction          :          -0.41764311 Ha         -11.36464727 eV
  | XC potential correction       :           0.53638012 Ha          14.59564570 eV
  | Free-atom electrostatic energy:          -0.43447709 Ha         -11.82272310 eV
  | Hartree energy correction     :          -0.00511185 Ha          -0.13910046 eV
  | van der Waals energy corr.    :           0.00000000 Ha           0.00000000 eV
  | Entropy correction            :           0.00000000 Ha           0.00000000 eV
  | ---------------------------
  | Total energy                  :          -0.89837993 Ha         -24.44616180 eV
  | Total energy, T -> 0          :          -0.89837993 Ha         -24.44616180 eV  <-- do not rely on this value for anything but (periodic) metals
  | Electronic free energy        :          -0.89837993 Ha         -24.44616180 eV

  Derived energy quantities:
  | Kinetic energy                :           0.88129069 Ha          23.98113983 eV
  | Electrostatic energy          :          -1.36202751 Ha         -37.06265436 eV
  | Energy correction for multipole
  | error in Hartree potential    :          -0.00013081 Ha          -0.00355951 eV
  | Sum of eigenvalues per atom                           :          -7.85766834 eV
  | Total energy (T->0) per atom                          :         -12.22308090 eV  <-- do not rely on this value for anything but (periodic) metals
  | Electronic free energy per atom                       :         -12.22308090 eV

  Self-consistency convergence accuracy:
  | Change of charge/spin density : 0.1155E+00 0.2624E+00
  | Change of sum of eigenvalues  : 0.2949E+01 eV
  | Change of total energy        : 0.2195E+01 eV

  End self-consistency iteration #     4       :  max(cpu_time)    wall_clock(cpu1)
  | Time for this iteration                    :        0.027 s           0.027 s
  | Charge density update                      :        0.007 s           0.007 s
  | Density mixing                             :        0.001 s           0.001 s
  | Hartree multipole update                   :        0.001 s           0.001 s
  | Hartree multipole summation                :        0.005 s           0.005 s
  | Integration                                :        0.009 s           0.009 s
  | Solution of K.-S. eqns.                    :        0.002 s           0.002 s
  | Total energy evaluation                    :        0.000 s           0.001 s
------------------------------------------------------------

------------------------------------------------------------
          Begin self-consistency iteration #    5

  Date     :  20220120, Time     :  152727.818
------------------------------------------------------------
  Evaluating new KS density.
  Integration grid: deviation in total charge (<rho> - N_e) =   1.097860E-07
  | <rho_up-rho_dn> = N_up-N_dn =     -1.9236; <|rho_up-rho_dn|> =      1.9236
  Pulay mixing of updated and previous charge densities.

  Evaluating partitioned Hartree potential by multipole expansion.
  | Analytical far-field extrapolation by fixed multipoles:
  | Hartree multipole sum: apparent total charge =  -0.424419E-05
  Summing up the Hartree potential.
  Time summed over all CPUs for potential: real work        0.034 s, elapsed        0.035 s
  | RMS charge density error from multipole expansion :   0.559767E-03

  Integrating Hamiltonian matrix: batch-based integration.
  Time summed over all CPUs for integration: real work        0.068 s, elapsed        0.074 s

  Updating Kohn-Sham eigenvalues, eigenvectors, occupation numbers, and Fermi level.
  Solving generalized eigenproblem
  Solving real symmetric generalised eigenvalue problem by standard ScaLAPACK.
  Using Cholesky factor for transformation
  Using 1-stage real ELPA solver
  Solving real symmetric generalised eigenvalue problem by standard ScaLAPACK.
  Using Cholesky factor for transformation
  Using 1-stage real ELPA solver
  Determining occupation numbers for Kohn-Sham eigenstates.
  | Chemical potential (Fermi level) in eV                 : -.18618662E+01
  | Error in electron count due to remaining E_F inaccuracy: 0.00000000E+00
  | Maximum occupation number of highest empty state:  0.00E+00

  Current spin moment of the entire structure :
  | N = N_up - N_down :    0.00
  | S                 :    0.00
  | J                 :    1.00

  Highest occupied state (VBM) at     -4.68718246 eV
  | Occupation number:      1.00000000
  | Spin channel:        2

  Lowest unoccupied state (CBM) at     1.97531808 eV
  | Occupation number:      0.00000000
  | Spin channel:        1

  Overall HOMO-LUMO gap:      6.66250054 eV.

  Total energy components:
  | Sum of eigenvalues            :          -0.48181951 Ha         -13.11097592 eV
  | XC energy correction          :          -0.31289069 Ha          -8.51418893 eV
  | XC potential correction       :           0.40123543 Ha          10.91817151 eV
  | Free-atom electrostatic energy:          -0.43447709 Ha         -11.82272310 eV
  | Hartree energy correction     :          -0.01246554 Ha          -0.33920453 eV
  | van der Waals energy corr.    :           0.00000000 Ha           0.00000000 eV
  | Entropy correction            :           0.00000000 Ha           0.00000000 eV
  | ---------------------------
  | Total energy                  :          -0.84041740 Ha         -22.86892097 eV
  | Total energy, T -> 0          :          -0.84041740 Ha         -22.86892097 eV  <-- do not rely on this value for anything but (periodic) metals
  | Electronic free energy        :          -0.84041740 Ha         -22.86892097 eV

  Derived energy quantities:
  | Kinetic energy                :           0.84940923 Ha          23.11360114 eV
  | Electrostatic energy          :          -1.37693594 Ha         -37.46833318 eV
  | Energy correction for multipole
  | error in Hartree potential    :          -0.00014804 Ha          -0.00402832 eV
  | Sum of eigenvalues per atom                           :          -6.55548796 eV
  | Total energy (T->0) per atom                          :         -11.43446048 eV  <-- do not rely on this value for anything but (periodic) metals
  | Electronic free energy per atom                       :         -11.43446048 eV

  Self-consistency convergence accuracy:
  | Change of charge/spin density : 0.8253E-01 0.2790E+00
  | Change of sum of eigenvalues  : 0.2604E+01 eV
  | Change of total energy        : 0.1577E+01 eV

  End self-consistency iteration #     5       :  max(cpu_time)    wall_clock(cpu1)
  | Time for this iteration                    :        0.027 s           0.027 s
  | Charge density update                      :        0.007 s           0.007 s
  | Density mixing                             :        0.002 s           0.001 s
  | Hartree multipole update                   :        0.001 s           0.002 s
  | Hartree multipole summation                :        0.005 s           0.004 s
  | Integration                                :        0.009 s           0.010 s
  | Solution of K.-S. eqns.                    :        0.001 s           0.001 s
  | Total energy evaluation                    :        0.000 s           0.000 s
------------------------------------------------------------

------------------------------------------------------------
          Begin self-consistency iteration #    6

  Date     :  20220120, Time     :  152727.849
------------------------------------------------------------
  Evaluating new KS density.
  Integration grid: deviation in total charge (<rho> - N_e) =   1.122714E-07
  | <rho_up-rho_dn> = N_up-N_dn =     -1.9832; <|rho_up-rho_dn|> =      1.9832
  Pulay mixing of updated and previous charge densities.

  Evaluating partitioned Hartree potential by multipole expansion.
  | Analytical far-field extrapolation by fixed multipoles:
  | Hartree multipole sum: apparent total charge =  -0.436977E-05
  Summing up the Hartree potential.
  Time summed over all CPUs for potential: real work        0.034 s, elapsed        0.035 s
  | RMS charge density error from multipole expansion :   0.628448E-03

  Integrating Hamiltonian matrix: batch-based integration.
  Time summed over all CPUs for integration: real work        0.069 s, elapsed        0.074 s

  Updating Kohn-Sham eigenvalues, eigenvectors, occupation numbers, and Fermi level.
  Solving generalized eigenproblem
  Solving real symmetric generalised eigenvalue problem by standard ScaLAPACK.
  Using Cholesky factor for transformation
  Using 1-stage real ELPA solver
  Solving real symmetric generalised eigenvalue problem by standard ScaLAPACK.
  Using Cholesky factor for transformation
  Using 1-stage real ELPA solver
  Determining occupation numbers for Kohn-Sham eigenstates.
  | Chemical potential (Fermi level) in eV                 : -.35186327E+01
  | Error in electron count due to remaining E_F inaccuracy: 0.00000000E+00
  | Maximum occupation number of highest empty state:  0.00E+00

  Current spin moment of the entire structure :
  | N = N_up - N_down :    0.00
  | S                 :    0.00
  | J                 :    1.00

  Highest occupied state (VBM) at     -6.06532008 eV
  | Occupation number:      1.00000000
  | Spin channel:        2

  Lowest unoccupied state (CBM) at     0.45734102 eV
  | Occupation number:      0.00000000
  | Spin channel:        1

  Overall HOMO-LUMO gap:      6.52266110 eV.

  Total energy components:
  | Sum of eigenvalues            :          -0.59786315 Ha         -16.26868405 eV
  | XC energy correction          :          -0.45932650 Ha         -12.49890997 eV
  | XC potential correction       :           0.59015046 Ha          16.05881110 eV
  | Free-atom electrostatic energy:          -0.43447709 Ha         -11.82272310 eV
  | Hartree energy correction     :          -0.00783423 Ha          -0.21318020 eV
  | van der Waals energy corr.    :           0.00000000 Ha           0.00000000 eV
  | Entropy correction            :           0.00000000 Ha           0.00000000 eV
  | ---------------------------
  | Total energy                  :          -0.90935050 Ha         -24.74468622 eV
  | Total energy, T -> 0          :          -0.90935050 Ha         -24.74468622 eV  <-- do not rely on this value for anything but (periodic) metals
  | Electronic free energy        :          -0.90935050 Ha         -24.74468622 eV

  Derived energy quantities:
  | Kinetic energy                :           0.89671645 Ha          24.40089620 eV
  | Electrostatic energy          :          -1.34674046 Ha         -36.64667245 eV
  | Energy correction for multipole
  | error in Hartree potential    :          -0.00014761 Ha          -0.00401675 eV
  | Sum of eigenvalues per atom                           :          -8.13434203 eV
  | Total energy (T->0) per atom                          :         -12.37234311 eV  <-- do not rely on this value for anything but (periodic) metals
  | Electronic free energy per atom                       :         -12.37234311 eV

  Self-consistency convergence accuracy:
  | Change of charge/spin density : 0.9183E-01 0.2899E+00
  | Change of sum of eigenvalues  : -.3158E+01 eV
  | Change of total energy        : -.1876E+01 eV

  End self-consistency iteration #     6       :  max(cpu_time)    wall_clock(cpu1)
  | Time for this iteration                    :        0.027 s           0.027 s
  | Charge density update                      :        0.007 s           0.006 s
  | Density mixing                             :        0.002 s           0.002 s
  | Hartree multipole update                   :        0.001 s           0.001 s
  | Hartree multipole summation                :        0.005 s           0.005 s
  | Integration                                :        0.009 s           0.010 s
  | Solution of K.-S. eqns.                    :        0.002 s           0.001 s
  | Total energy evaluation                    :        0.000 s           0.000 s
------------------------------------------------------------

------------------------------------------------------------
          Begin self-consistency iteration #    7

  Date     :  20220120, Time     :  152727.879
------------------------------------------------------------
  Evaluating new KS density.
  Integration grid: deviation in total charge (<rho> - N_e) =   1.080118E-07
  | <rho_up-rho_dn> = N_up-N_dn =     -1.8989; <|rho_up-rho_dn|> =      1.8989
  Pulay mixing of updated and previous charge densities.

  Evaluating partitioned Hartree potential by multipole expansion.
  | Analytical far-field extrapolation by fixed multipoles:
  | Hartree multipole sum: apparent total charge =  -0.410376E-05
  Summing up the Hartree potential.
  Time summed over all CPUs for potential: real work        0.034 s, elapsed        0.035 s
  | RMS charge density error from multipole expansion :   0.460544E-03

  Integrating Hamiltonian matrix: batch-based integration.
  Time summed over all CPUs for integration: real work        0.069 s, elapsed        0.074 s

  Updating Kohn-Sham eigenvalues, eigenvectors, occupation numbers, and Fermi level.
  Solving generalized eigenproblem
  Solving real symmetric generalised eigenvalue problem by standard ScaLAPACK.
  Using Cholesky factor for transformation
  Using 1-stage real ELPA solver
  Solving real symmetric generalised eigenvalue problem by standard ScaLAPACK.
  Using Cholesky factor for transformation
  Using 1-stage real ELPA solver
  Determining occupation numbers for Kohn-Sham eigenstates.
  | Chemical potential (Fermi level) in eV                 : -.26826355E+01
  | Error in electron count due to remaining E_F inaccuracy: 0.00000000E+00
  | Maximum occupation number of highest empty state:  0.00E+00

  Current spin moment of the entire structure :
  | N = N_up - N_down :    0.00
  | S                 :    0.00
  | J                 :    1.00

  Highest occupied state (VBM) at     -5.62820748 eV
  | Occupation number:      1.00000000
  | Spin channel:        2

  Lowest unoccupied state (CBM) at     1.56904916 eV
  | Occupation number:      0.00000000
  | Spin channel:        1

  Overall HOMO-LUMO gap:      7.19725664 eV.

  Total energy components:
  | Sum of eigenvalues            :          -0.56368691 Ha         -15.33870135 eV
  | XC energy correction          :          -0.35996181 Ha          -9.79505915 eV
  | XC potential correction       :           0.46451456 Ha          12.64008430 eV
  | Free-atom electrostatic energy:          -0.43447709 Ha         -11.82272310 eV
  | Hartree energy correction     :          -0.01337085 Ha          -0.36383932 eV
  | van der Waals energy corr.    :           0.00000000 Ha           0.00000000 eV
  | Entropy correction            :           0.00000000 Ha           0.00000000 eV
  | ---------------------------
  | Total energy                  :          -0.90698210 Ha         -24.68023862 eV
  | Total energy, T -> 0          :          -0.90698210 Ha         -24.68023862 eV  <-- do not rely on this value for anything but (periodic) metals
  | Electronic free energy        :          -0.90698210 Ha         -24.68023862 eV

  Derived energy quantities:
  | Kinetic energy                :           0.83875782 Ha          22.82376147 eV
  | Electrostatic energy          :          -1.38577811 Ha         -37.70894094 eV
  | Energy correction for multipole
  | error in Hartree potential    :          -0.00012881 Ha          -0.00350510 eV
  | Sum of eigenvalues per atom                           :          -7.66935067 eV
  | Total energy (T->0) per atom                          :         -12.34011931 eV  <-- do not rely on this value for anything but (periodic) metals
  | Electronic free energy per atom                       :         -12.34011931 eV

  Self-consistency convergence accuracy:
  | Change of charge/spin density : 0.7088E-01 0.2775E+00
  | Change of sum of eigenvalues  : 0.9300E+00 eV
  | Change of total energy        : 0.6445E-01 eV

  End self-consistency iteration #     7       :  max(cpu_time)    wall_clock(cpu1)
  | Time for this iteration                    :        0.027 s           0.027 s
  | Charge density update                      :        0.007 s           0.006 s
  | Density mixing                             :        0.002 s           0.002 s
  | Hartree multipole update                   :        0.001 s           0.001 s
  | Hartree multipole summation                :        0.005 s           0.004 s
  | Integration                                :        0.009 s           0.010 s
  | Solution of K.-S. eqns.                    :        0.001 s           0.001 s
  | Total energy evaluation                    :        0.000 s           0.000 s
------------------------------------------------------------

------------------------------------------------------------
          Begin self-consistency iteration #    8

  Date     :  20220120, Time     :  152727.908
------------------------------------------------------------
  Evaluating new KS density.
  Integration grid: deviation in total charge (<rho> - N_e) =   1.116569E-07
  | <rho_up-rho_dn> = N_up-N_dn =     -1.9599; <|rho_up-rho_dn|> =      1.9599
  Pulay mixing of updated and previous charge densities.

  Evaluating partitioned Hartree potential by multipole expansion.
  | Analytical far-field extrapolation by fixed multipoles:
  | Hartree multipole sum: apparent total charge =  -0.477464E-05
  Summing up the Hartree potential.
  Time summed over all CPUs for potential: real work        0.034 s, elapsed        0.034 s
  | RMS charge density error from multipole expansion :   0.161169E-02

  Integrating Hamiltonian matrix: batch-based integration.
  Time summed over all CPUs for integration: real work        0.066 s, elapsed        0.069 s

  Updating Kohn-Sham eigenvalues, eigenvectors, occupation numbers, and Fermi level.
  Solving generalized eigenproblem
  Solving real symmetric generalised eigenvalue problem by standard ScaLAPACK.
  Using Cholesky factor for transformation
  Using 1-stage real ELPA solver
  Solving real symmetric generalised eigenvalue problem by standard ScaLAPACK.
  Using Cholesky factor for transformation
  Using 1-stage real ELPA solver
  Determining occupation numbers for Kohn-Sham eigenstates.
  | Chemical potential (Fermi level) in eV                 : -.20108536E+01
  | Error in electron count due to remaining E_F inaccuracy: 0.00000000E+00
  | Maximum occupation number of highest empty state:  0.00E+00

  Current spin moment of the entire structure :
  | N = N_up - N_down :    0.00
  | S                 :    0.00
  | J                 :    1.00

  Highest occupied state (VBM) at     -5.19191594 eV
  | Occupation number:      1.00000000
  | Spin channel:        2

  Lowest unoccupied state (CBM) at     0.40991804 eV
  | Occupation number:      0.00000000
  | Spin channel:        1

  Overall HOMO-LUMO gap:      5.60183398 eV.

  Total energy components:
  | Sum of eigenvalues            :          -0.50216181 Ha         -13.66451806 eV
  | XC energy correction          :          -0.48005605 Ha         -13.06298972 eV
  | XC potential correction       :           0.61996536 Ha          16.87011568 eV
  | Free-atom electrostatic energy:          -0.43447709 Ha         -11.82272310 eV
  | Hartree energy correction     :          -0.04241942 Ha          -1.15429124 eV
  | van der Waals energy corr.    :           0.00000000 Ha           0.00000000 eV
  | Entropy correction            :           0.00000000 Ha           0.00000000 eV
  | ---------------------------
  | Total energy                  :          -0.83914901 Ha         -22.83440645 eV
  | Total energy, T -> 0          :          -0.83914901 Ha         -22.83440645 eV  <-- do not rely on this value for anything but (periodic) metals
  | Electronic free energy        :          -0.83914901 Ha         -22.83440645 eV

  Derived energy quantities:
  | Kinetic energy                :           1.03266418 Ha          28.10022209 eV
  | Electrostatic energy          :          -1.39175715 Ha         -37.87163881 eV
  | Energy correction for multipole
  | error in Hartree potential    :          -0.00030481 Ha          -0.00829425 eV
  | Sum of eigenvalues per atom                           :          -6.83225903 eV
  | Total energy (T->0) per atom                          :         -11.41720322 eV  <-- do not rely on this value for anything but (periodic) metals
  | Electronic free energy per atom                       :         -11.41720322 eV

  Self-consistency convergence accuracy:
  | Change of charge/spin density : 0.1156E+00 0.2798E+00
  | Change of sum of eigenvalues  : 0.1674E+01 eV
  | Change of total energy        : 0.1846E+01 eV

  End self-consistency iteration #     8       :  max(cpu_time)    wall_clock(cpu1)
  | Time for this iteration                    :        0.027 s           0.026 s
  | Charge density update                      :        0.007 s           0.006 s
  | Density mixing                             :        0.002 s           0.002 s
  | Hartree multipole update                   :        0.001 s           0.002 s
  | Hartree multipole summation                :        0.005 s           0.004 s
  | Integration                                :        0.009 s           0.009 s
  | Solution of K.-S. eqns.                    :        0.002 s           0.002 s
  | Total energy evaluation                    :        0.000 s           0.001 s
------------------------------------------------------------

------------------------------------------------------------
          Begin self-consistency iteration #    9

  Date     :  20220120, Time     :  152727.938
------------------------------------------------------------
  Evaluating new KS density.
  Integration grid: deviation in total charge (<rho> - N_e) =   1.153657E-07
  | <rho_up-rho_dn> = N_up-N_dn =     -2.0994; <|rho_up-rho_dn|> =      2.0994
  Pulay mixing of updated and previous charge densities.

  Evaluating partitioned Hartree potential by multipole expansion.
  | Analytical far-field extrapolation by fixed multipoles:
  | Hartree multipole sum: apparent total charge =  -0.426823E-05
  Summing up the Hartree potential.
  Time summed over all CPUs for potential: real work        0.034 s, elapsed        0.035 s
  | RMS charge density error from multipole expansion :   0.589145E-03

  Integrating Hamiltonian matrix: batch-based integration.
  Time summed over all CPUs for integration: real work        0.066 s, elapsed        0.070 s

  Updating Kohn-Sham eigenvalues, eigenvectors, occupation numbers, and Fermi level.
  Solving generalized eigenproblem
  Solving real symmetric generalised eigenvalue problem by standard ScaLAPACK.
  Using Cholesky factor for transformation
  Using 1-stage real ELPA solver
  Solving real symmetric generalised eigenvalue problem by standard ScaLAPACK.
  Using Cholesky factor for transformation
  Using 1-stage real ELPA solver
  Determining occupation numbers for Kohn-Sham eigenstates.
  | Chemical potential (Fermi level) in eV                 : -.17790704E+01
  | Error in electron count due to remaining E_F inaccuracy: 0.00000000E+00
  | Maximum occupation number of highest empty state:  0.00E+00

  Current spin moment of the entire structure :
  | N = N_up - N_down :    0.00
  | S                 :    0.00
  | J                 :    1.00

  Highest occupied state (VBM) at     -5.30454627 eV
  | Occupation number:      1.00000000
  | Spin channel:        2

  Lowest unoccupied state (CBM) at     2.37155564 eV
  | Occupation number:      0.00000000
  | Spin channel:        1

  Overall HOMO-LUMO gap:      7.67610190 eV.

  Total energy components:
  | Sum of eigenvalues            :          -0.51076933 Ha         -13.89874067 eV
  | XC energy correction          :          -0.34929843 Ha          -9.50489401 eV
  | XC potential correction       :           0.45100363 Ha          12.27243323 eV
  | Free-atom electrostatic energy:          -0.43447709 Ha         -11.82272310 eV
  | Hartree energy correction     :          -0.04156706 Ha          -1.13109714 eV
  | van der Waals energy corr.    :           0.00000000 Ha           0.00000000 eV
  | Entropy correction            :           0.00000000 Ha           0.00000000 eV
  | ---------------------------
  | Total energy                  :          -0.88510828 Ha         -24.08502169 eV
  | Total energy, T -> 0          :          -0.88510828 Ha         -24.08502169 eV  <-- do not rely on this value for anything but (periodic) metals
  | Electronic free energy        :          -0.88510828 Ha         -24.08502169 eV

  Derived energy quantities:
  | Kinetic energy                :           0.83333724 Ha          22.67626013 eV
  | Electrostatic energy          :          -1.36914709 Ha         -37.25638781 eV
  | Energy correction for multipole
  | error in Hartree potential    :          -0.00010069 Ha          -0.00273982 eV
  | Sum of eigenvalues per atom                           :          -6.94937034 eV
  | Total energy (T->0) per atom                          :         -12.04251084 eV  <-- do not rely on this value for anything but (periodic) metals
  | Electronic free energy per atom                       :         -12.04251084 eV

  Self-consistency convergence accuracy:
  | Change of charge/spin density : 0.1030E+00 0.2914E+00
  | Change of sum of eigenvalues  : -.2342E+00 eV
  | Change of total energy        : -.1251E+01 eV

  End self-consistency iteration #     9       :  max(cpu_time)    wall_clock(cpu1)
  | Time for this iteration                    :        0.027 s           0.026 s
  | Charge density update                      :        0.007 s           0.006 s
  | Density mixing                             :        0.002 s           0.002 s
  | Hartree multipole update                   :        0.001 s           0.001 s
  | Hartree multipole summation                :        0.005 s           0.005 s
  | Integration                                :        0.009 s           0.009 s
  | Solution of K.-S. eqns.                    :        0.001 s           0.001 s
  | Total energy evaluation                    :        0.000 s           0.000 s
------------------------------------------------------------

------------------------------------------------------------
          Begin self-consistency iteration #   10

  Date     :  20220120, Time     :  152727.969
------------------------------------------------------------
  Evaluating new KS density.
  Integration grid: deviation in total charge (<rho> - N_e) =   1.116636E-07
  | <rho_up-rho_dn> = N_up-N_dn =     -2.0303; <|rho_up-rho_dn|> =      2.0303
  Pulay mixing of updated and previous charge densities.

  Evaluating partitioned Hartree potential by multipole expansion.
  | Analytical far-field extrapolation by fixed multipoles:
  | Hartree multipole sum: apparent total charge =  -0.753655E-05
  Summing up the Hartree potential.
  Time summed over all CPUs for potential: real work        0.034 s, elapsed        0.034 s
  | RMS charge density error from multipole expansion :   0.245806E-01

  Integrating Hamiltonian matrix: batch-based integration.
  Time summed over all CPUs for integration: real work        0.069 s, elapsed        0.073 s

  Updating Kohn-Sham eigenvalues, eigenvectors, occupation numbers, and Fermi level.
  Solving generalized eigenproblem
  Solving real symmetric generalised eigenvalue problem by standard ScaLAPACK.
  Using Cholesky factor for transformation
  Using 1-stage real ELPA solver
  Solving real symmetric generalised eigenvalue problem by standard ScaLAPACK.
  Using Cholesky factor for transformation
  Using 1-stage real ELPA solver
  Determining occupation numbers for Kohn-Sham eigenstates.
  | Chemical potential (Fermi level) in eV                 : -.25101315E+02
  | Error in electron count due to remaining E_F inaccuracy: 0.00000000E+00
  | Maximum occupation number of highest empty state:  0.00E+00

  Current spin moment of the entire structure :
  | N = N_up - N_down :    0.00
  | S                 :    0.00
  | J                 :    1.00

  Highest occupied state (VBM) at    -27.80163156 eV
  | Occupation number:      1.00000000
  | Spin channel:        2

  Lowest unoccupied state (CBM) at    -1.66666397 eV
  | Occupation number:      0.00000000
  | Spin channel:        1

  Overall HOMO-LUMO gap:     26.13496760 eV.

  Total energy components:
  | Sum of eigenvalues            :          -2.07597886 Ha         -56.49025887 eV
  | XC energy correction          :          -2.61009090 Ha         -71.02418708 eV
  | XC potential correction       :           3.37459024 Ha          91.82727259 eV
  | Free-atom electrostatic energy:          -0.43447709 Ha         -11.82272310 eV
  | Hartree energy correction     :          -2.95333995 Ha         -80.36446884 eV
  | van der Waals energy corr.    :           0.00000000 Ha           0.00000000 eV
  | Entropy correction            :           0.00000000 Ha           0.00000000 eV
  | ---------------------------
  | Total energy                  :          -4.69929655 Ha        -127.87436529 eV
  | Total energy, T -> 0          :          -4.69929655 Ha        -127.87436529 eV  <-- do not rely on this value for anything but (periodic) metals
  | Electronic free energy        :          -4.69929655 Ha        -127.87436529 eV

  Derived energy quantities:
  | Kinetic energy                :          -4.33319188 Ha        -117.91215031 eV
  | Electrostatic energy          :           2.24398623 Ha          61.06197209 eV
  | Energy correction for multipole
  | error in Hartree potential    :          -0.00193189 Ha          -0.05256942 eV
  | Sum of eigenvalues per atom                           :         -28.24512943 eV
  | Total energy (T->0) per atom                          :         -63.93718265 eV  <-- do not rely on this value for anything but (periodic) metals
  | Electronic free energy per atom                       :         -63.93718265 eV

  Self-consistency convergence accuracy:
  | Change of charge/spin density : 0.8468E-01 0.2944E+00
  | Change of sum of eigenvalues  : -.4259E+02 eV
  | Change of total energy        : -.1038E+03 eV

  End self-consistency iteration #    10       :  max(cpu_time)    wall_clock(cpu1)
  | Time for this iteration                    :        0.027 s           0.026 s
  | Charge density update                      :        0.008 s           0.006 s
  | Density mixing                             :        0.002 s           0.002 s
  | Hartree multipole update                   :        0.001 s           0.001 s
  | Hartree multipole summation                :        0.005 s           0.005 s
  | Integration                                :        0.009 s           0.009 s
  | Solution of K.-S. eqns.                    :        0.001 s           0.002 s
  | Total energy evaluation                    :        0.000 s           0.001 s
------------------------------------------------------------

------------------------------------------------------------
          Begin self-consistency iteration #   11

  Date     :  20220120, Time     :  152727.998
------------------------------------------------------------
  Evaluating new KS density.
  Integration grid: deviation in total charge (<rho> - N_e) =   4.670045E-08
  | <rho_up-rho_dn> = N_up-N_dn =     -0.1710; <|rho_up-rho_dn|> =      2.6846
  Pulay mixing of updated and previous charge densities.

  Evaluating partitioned Hartree potential by multipole expansion.
  | Analytical far-field extrapolation by fixed multipoles:
  | Hartree multipole sum: apparent total charge =  -0.968868E-05
  Summing up the Hartree potential.
  Time summed over all CPUs for potential: real work        0.034 s, elapsed        0.035 s
  | RMS charge density error from multipole expansion :   0.165719E-01

  Integrating Hamiltonian matrix: batch-based integration.
  Time summed over all CPUs for integration: real work        0.067 s, elapsed        0.072 s

  Updating Kohn-Sham eigenvalues, eigenvectors, occupation numbers, and Fermi level.
  Solving generalized eigenproblem
  Solving real symmetric generalised eigenvalue problem by standard ScaLAPACK.
  Using Cholesky factor for transformation
  Using 1-stage real ELPA solver
  Solving real symmetric generalised eigenvalue problem by standard ScaLAPACK.
  Using Cholesky factor for transformation
  Using 1-stage real ELPA solver
  Determining occupation numbers for Kohn-Sham eigenstates.
  | Chemical potential (Fermi level) in eV                 : -.20166567E+02
  | Error in electron count due to remaining E_F inaccuracy: 0.00000000E+00
  | Maximum occupation number of highest empty state:  0.00E+00

  Current spin moment of the entire structure :
  | N = N_up - N_down :    0.00
  | S                 :    0.00
  | J                 :    1.00

  Highest occupied state (VBM) at    -22.52745079 eV
  | Occupation number:      1.00000000
  | Spin channel:        2

  Lowest unoccupied state (CBM) at    -1.20585647 eV
  | Occupation number:      0.00000000
  | Spin channel:        1

  Overall HOMO-LUMO gap:     21.32159432 eV.

  Total energy components:
  | Sum of eigenvalues            :          -1.68632966 Ha         -45.88736477 eV
  | XC energy correction          :          -1.97851946 Ha         -53.83825380 eV
  | XC potential correction       :           2.55465685 Ha          69.51574974 eV
  | Free-atom electrostatic energy:          -0.43447709 Ha         -11.82272310 eV
  | Hartree energy correction     :          -1.74347292 Ha         -47.44231186 eV
  | van der Waals energy corr.    :           0.00000000 Ha           0.00000000 eV
  | Entropy correction            :           0.00000000 Ha           0.00000000 eV
  | ---------------------------
  | Total energy                  :          -3.28814228 Ha         -89.47490380 eV
  | Total energy, T -> 0          :          -3.28814228 Ha         -89.47490380 eV  <-- do not rely on this value for anything but (periodic) metals
  | Electronic free energy        :          -3.28814228 Ha         -89.47490380 eV

  Derived energy quantities:
  | Kinetic energy                :          -2.89093053 Ha         -78.66622234 eV
  | Electrostatic energy          :           1.58130772 Ha          43.02957234 eV
  | Energy correction for multipole
  | error in Hartree potential    :          -0.00117150 Ha          -0.03187827 eV
  | Sum of eigenvalues per atom                           :         -22.94368239 eV
  | Total energy (T->0) per atom                          :         -44.73745190 eV  <-- do not rely on this value for anything but (periodic) metals
  | Electronic free energy per atom                       :         -44.73745190 eV

[...]
  | Change of sum of eigenvalues  : -.1452E-03 eV
  | Change of total energy        : -.5623E-08 eV

  End self-consistency iteration #    27       :  max(cpu_time)    wall_clock(cpu1)
  | Time for this iteration                    :        0.030 s           0.030 s
  | Charge density update                      :        0.007 s           0.006 s
  | Density mixing                             :        0.002 s           0.002 s
  | Hartree multipole update                   :        0.001 s           0.002 s
  | Hartree multipole summation                :        0.005 s           0.005 s
  | Integration                                :        0.012 s           0.012 s
  | Solution of K.-S. eqns.                    :        0.002 s           0.002 s
  | Total energy evaluation                    :        0.000 s           0.000 s
------------------------------------------------------------

------------------------------------------------------------
          Begin self-consistency iteration #   28

  Date     :  20220120, Time     :  152728.510
------------------------------------------------------------
  Evaluating new KS density.
  Integration grid: deviation in total charge (<rho> - N_e) =  -6.612488E-13
  | <rho_up-rho_dn> = N_up-N_dn =      0.0000; <|rho_up-rho_dn|> =      0.0000
  Pulay mixing of updated and previous charge densities.

  Evaluating partitioned Hartree potential by multipole expansion.
  | Analytical far-field extrapolation by fixed multipoles:
  | Hartree multipole sum: apparent total charge =   0.126417E-06
  Summing up the Hartree potential.
  Time summed over all CPUs for potential: real work        0.046 s, elapsed        0.057 s
  | RMS charge density error from multipole expansion :   0.897433E-03

  Integrating Hamiltonian matrix: batch-based integration.
  Time summed over all CPUs for integration: real work        0.080 s, elapsed        0.085 s

  Updating Kohn-Sham eigenvalues, eigenvectors, occupation numbers, and Fermi level.
  Solving generalized eigenproblem
  Solving real symmetric generalised eigenvalue problem by standard ScaLAPACK.
  Using Cholesky factor for transformation
  Using 1-stage real ELPA solver
  Solving real symmetric generalised eigenvalue problem by standard ScaLAPACK.
  Using Cholesky factor for transformation
  Using 1-stage real ELPA solver
  Determining occupation numbers for Kohn-Sham eigenstates.
  | Chemical potential (Fermi level) in eV                 : -.81430035E+01
  | Error in electron count due to remaining E_F inaccuracy: 0.00000000E+00
  | Maximum occupation number of highest empty state:  0.00E+00

  Current spin moment of the entire structure :
  | N = N_up - N_down :    0.00
  | S                 :    0.00
  | J                 :    1.00

  Highest occupied state (VBM) at     -9.69320441 eV
  | Occupation number:      1.00000000
  | Spin channel:        1

  Lowest unoccupied state (CBM) at    -0.16735126 eV
  | Occupation number:      0.00000000
  | Spin channel:        2

  Overall HOMO-LUMO gap:      9.52585315 eV.

  Total energy components:
  | Sum of eigenvalues            :          -0.71243755 Ha         -19.38641199 eV
  | XC energy correction          :          -0.64543417 Ha         -17.56315735 eV
  | XC potential correction       :           0.82854923 Ha          22.54597155 eV
  | Free-atom electrostatic energy:          -0.43447709 Ha         -11.82272310 eV
  | Hartree energy correction     :          -0.19235977 Ha          -5.23437554 eV
  | van der Waals energy corr.    :           0.00000000 Ha           0.00000000 eV
  | Entropy correction            :           0.00000000 Ha           0.00000000 eV
  | ---------------------------
  | Total energy                  :          -1.15615934 Ha         -31.46069643 eV
  | Total energy, T -> 0          :          -1.15615934 Ha         -31.46069643 eV  <-- do not rely on this value for anything but (periodic) metals
  | Electronic free energy        :          -1.15615934 Ha         -31.46069643 eV

  Derived energy quantities:
  | Kinetic energy                :           1.01324575 Ha          27.57181971 eV
  | Electrostatic energy          :          -1.52397092 Ha         -41.46935878 eV
  | Energy correction for multipole
  | error in Hartree potential    :          -0.00009406 Ha          -0.00255958 eV
  | Sum of eigenvalues per atom                           :          -9.69320599 eV
  | Total energy (T->0) per atom                          :         -15.73034822 eV  <-- do not rely on this value for anything but (periodic) metals
  | Electronic free energy per atom                       :         -15.73034822 eV

  Self-consistency convergence accuracy:
  | Change of charge/spin density : 0.8290E-06 0.7741E-06
  | Change of sum of eigenvalues  : 0.1347E-04 eV
  | Change of total energy        : -.6770E-10 eV

  End self-consistency iteration #    28       :  max(cpu_time)    wall_clock(cpu1)
  | Time for this iteration                    :        0.032 s           0.032 s
  | Charge density update                      :        0.007 s           0.006 s
  | Density mixing                             :        0.002 s           0.002 s
  | Hartree multipole update                   :        0.002 s           0.002 s
  | Hartree multipole summation                :        0.007 s           0.008 s
  | Integration                                :        0.011 s           0.011 s
  | Solution of K.-S. eqns.                    :        0.002 s           0.001 s
  | Total energy evaluation                    :        0.000 s           0.000 s
------------------------------------------------------------

------------------------------------------------------------
          Begin self-consistency iteration #   29

  Date     :  20220120, Time     :  152728.547
------------------------------------------------------------
  Evaluating new KS density.
  Integration grid: deviation in total charge (<rho> - N_e) =  -1.367795E-13
  | <rho_up-rho_dn> = N_up-N_dn =      0.0000; <|rho_up-rho_dn|> =      0.0000
  Pulay mixing of updated and previous charge densities.

  Evaluating partitioned Hartree potential by multipole expansion.
  | Analytical far-field extrapolation by fixed multipoles:
  | Hartree multipole sum: apparent total charge =   0.126408E-06
  Summing up the Hartree potential.
  Time summed over all CPUs for potential: real work        0.034 s, elapsed        0.037 s
  | RMS charge density error from multipole expansion :   0.897434E-03

  Integrating Hamiltonian matrix: batch-based integration.
  Time summed over all CPUs for integration: real work        0.078 s, elapsed        0.083 s

  Updating Kohn-Sham eigenvalues, eigenvectors, occupation numbers, and Fermi level.
  Solving generalized eigenproblem
  Solving real symmetric generalised eigenvalue problem by standard ScaLAPACK.
  Using Cholesky factor for transformation
  Using 1-stage real ELPA solver
  Solving real symmetric generalised eigenvalue problem by standard ScaLAPACK.
  Using Cholesky factor for transformation
  Using 1-stage real ELPA solver
  Determining occupation numbers for Kohn-Sham eigenstates.
  | Chemical potential (Fermi level) in eV                 : -.81450765E+01
  | Error in electron count due to remaining E_F inaccuracy: 0.00000000E+00
  | Maximum occupation number of highest empty state:  0.00E+00

  Current spin moment of the entire structure :
  | N = N_up - N_down :    0.00
  | S                 :    0.00
  | J                 :    1.00

  Highest occupied state (VBM) at     -9.69320311 eV
  | Occupation number:      1.00000000
  | Spin channel:        1

  Lowest unoccupied state (CBM) at    -0.16734965 eV
  | Occupation number:      0.00000000
  | Spin channel:        2

  Overall HOMO-LUMO gap:      9.52585346 eV.

  Total energy components:
  | Sum of eigenvalues            :          -0.71243735 Ha         -19.38640669 eV
  | XC energy correction          :          -0.64543427 Ha         -17.56316005 eV
  | XC potential correction       :           0.82854936 Ha          22.54597524 eV
  | Free-atom electrostatic energy:          -0.43447709 Ha         -11.82272310 eV
  | Hartree energy correction     :          -0.19236000 Ha          -5.23438184 eV
  | van der Waals energy corr.    :           0.00000000 Ha           0.00000000 eV
  | Entropy correction            :           0.00000000 Ha           0.00000000 eV
  | ---------------------------
  | Total energy                  :          -1.15615934 Ha         -31.46069643 eV
  | Total energy, T -> 0          :          -1.15615934 Ha         -31.46069643 eV  <-- do not rely on this value for anything but (periodic) metals
  | Electronic free energy        :          -1.15615934 Ha         -31.46069643 eV

  Derived energy quantities:
  | Kinetic energy                :           1.01324572 Ha          27.57181895 eV
  | Electrostatic energy          :          -1.52397080 Ha         -41.46935534 eV
  | Energy correction for multipole
  | error in Hartree potential    :          -0.00009406 Ha          -0.00255960 eV
  | Sum of eigenvalues per atom                           :          -9.69320334 eV
  | Total energy (T->0) per atom                          :         -15.73034822 eV  <-- do not rely on this value for anything but (periodic) metals
  | Electronic free energy per atom                       :         -15.73034822 eV

  Self-consistency convergence accuracy:
  | Change of charge/spin density : 0.1582E-06 0.3636E-06
  | Change of sum of eigenvalues  : 0.5300E-05 eV
  | Change of total energy        : -.2944E-09 eV

  Writing Kohn-Sham eigenvalues.

  Spin-up eigenvalues:

  State    Occupation    Eigenvalue [Ha]    Eigenvalue [eV]
      1       1.00000          -0.356219           -9.69320
      2       0.00000          -0.006150           -0.16735
      3       0.00000           0.046814            1.27387
      4       0.00000           0.138949            3.78099
      5       0.00000           0.307941            8.37949
      6       0.00000           0.307941            8.37949
      7       0.00000           0.378598           10.30217
      8       0.00000           0.509309           13.85900
      9       0.00000           0.695769           18.93285
     10       0.00000           0.724521           19.71521
     11       0.00000           0.724521           19.71521

  Spin-down eigenvalues:

  State    Occupation    Eigenvalue [Ha]    Eigenvalue [eV]
      1       1.00000          -0.356219           -9.69320
      2       0.00000          -0.006150           -0.16735
      3       0.00000           0.046814            1.27387
      4       0.00000           0.138949            3.78099
      5       0.00000           0.307941            8.37949
      6       0.00000           0.307941            8.37949
      7       0.00000           0.378598           10.30217
      8       0.00000           0.509309           13.85900
      9       0.00000           0.695769           18.93284
     10       0.00000           0.724521           19.71521
     11       0.00000           0.724521           19.71521

  Current spin moment of the entire structure :
  | N = N_up - N_down :    0.00
  | S                 :    0.00
  | J                 :    1.00

  Highest occupied state (VBM) at     -9.69320311 eV
  | Occupation number:      1.00000000
  | Spin channel:        1

  Lowest unoccupied state (CBM) at    -0.16734965 eV
  | Occupation number:      0.00000000
  | Spin channel:        2

  Overall HOMO-LUMO gap:      9.52585346 eV.

  Self-consistency cycle converged.

  End self-consistency iteration #    29       :  max(cpu_time)    wall_clock(cpu1)
  | Time for this iteration                    :        0.032 s           0.030 s
  | Charge density update                      :        0.011 s           0.006 s
  | Density mixing                             :        0.002 s           0.002 s
  | Hartree multipole update                   :        0.001 s           0.002 s
  | Hartree multipole summation                :        0.005 s           0.005 s
  | Integration                                :        0.011 s           0.010 s
  | Solution of K.-S. eqns.                    :        0.001 s           0.002 s
  | Total energy evaluation                    :        0.000 s           0.001 s
------------------------------------------------------------
  Obtaining max. number of non-zero basis functions in each batch .
  Evaluating KS electron density on previously omitted grid points.
  Evaluating non-empirical van der Waals correction (Tkatchenko/Scheffler 2009).
  Performing Hirshfeld analysis of fragment charges and moments.
  ----------------------------------------------------------------------
  | Atom     1: H
  |   Hirshfeld charge        :     -0.00000037
  |   Free atom volume        :     10.31539447
  |   Hirshfeld volume        :      6.10539605
  |   Hirshfeld spin moment   :     -0.00000018
  |   Hirshfeld dipole vector :     -0.00000000      -0.00000000      -0.08851504
  |   Hirshfeld dipole moment :      0.08851504
  |   Hirshfeld second moments:      0.09716438       0.00000000      -0.00000000
  |                                  0.00000000       0.09716438       0.00000000
  |                                 -0.00000000       0.00000000       0.09940256
  ----------------------------------------------------------------------
  | Atom     2: H
  |   Hirshfeld charge        :     -0.00000037
  |   Free atom volume        :     10.31539447
  |   Hirshfeld volume        :      6.10539605
  |   Hirshfeld spin moment   :     -0.00000018
  |   Hirshfeld dipole vector :     -0.00000000      -0.00000000       0.08851504
  |   Hirshfeld dipole moment :      0.08851504
  |   Hirshfeld second moments:      0.09716438       0.00000000       0.00000000
  |                                  0.00000000       0.09716438      -0.00000000
  |                                  0.00000000      -0.00000000       0.09940256
  ----------------------------------------------------------------------


  Total energy components:
  | Sum of eigenvalues            :          -0.71243735 Ha         -19.38640669 eV
  | XC energy correction          :          -0.64543427 Ha         -17.56316005 eV
  | XC potential correction       :           0.82854936 Ha          22.54597524 eV
  | Free-atom electrostatic energy:          -0.43447709 Ha         -11.82272310 eV
  | Hartree energy correction     :          -0.19236000 Ha          -5.23438184 eV
  | van der Waals energy corr.    :          -0.00000020 Ha          -0.00000551 eV
  | Entropy correction            :           0.00000000 Ha           0.00000000 eV
  | ---------------------------
  | Total energy                  :          -1.15615955 Ha         -31.46070195 eV
  | Total energy, T -> 0          :          -1.15615955 Ha         -31.46070195 eV  <-- do not rely on this value for anything but (periodic) metals
  | Electronic free energy        :          -1.15615955 Ha         -31.46070195 eV

  Derived energy quantities:
  | Kinetic energy                :           1.01324572 Ha          27.57181895 eV
  | Electrostatic energy          :          -1.52397080 Ha         -41.46935534 eV
  | Energy correction for multipole
  | error in Hartree potential    :          -0.00009406 Ha          -0.00255960 eV
  | Sum of eigenvalues per atom                           :          -9.69320334 eV
  | Total energy (T->0) per atom                          :         -15.73035097 eV  <-- do not rely on this value for anything but (periodic) metals
  | Electronic free energy per atom                       :         -15.73035097 eV
  Timings for VdW correction (Tkatchenko-Scheffler 2009 or later):
  | CPU time:        0.002 s, Wall clock time:        0.003 s.

  Energy and forces in a compact form:
  | Total energy uncorrected      :         -0.314607019451295E+02 eV
  | Total energy corrected        :         -0.314607019451295E+02 eV  <-- do not rely on this value for anything but (periodic) metals
  | Electronic free energy        :         -0.314607019451295E+02 eV

  ------------------------------------ 
  Start decomposition of the XC Energy 
  ------------------------------------ 
  Hartree-Fock part   :          0.000000000 Ha              0.000000000 eV
  ------------------------------------ 
  X Energy            :         -0.603419403 Ha            -16.419877379 eV
  C Energy GGA        :         -0.042014866 Ha             -1.143282667 eV
  Total XC Energy     :         -0.645434268 Ha            -17.563160046 eV
  LDA X and C from self-consistent density 
  X Energy LDA        :         -0.526614666 Ha            -14.329914153 eV
  C Energy LDA        :         -0.091657959 Ha             -2.494139954 eV
  ------------------------------------ 
  End decomposition of the XC Energy 
  ------------------------------------ 

------------------------------------------------------------------------------
  Final output of selected total energy values:

  The following output summarizes some interesting total energy values
  at the end of a run (AFTER all relaxation, molecular dynamics, etc.).

  | Total energy of the DFT / Hartree-Fock s.c.f. calculation      :            -31.460701945 eV
  | Final zero-broadening corrected energy (caution - metals only) :            -31.460701945 eV
  | For reference only, the value of 1 Hartree used in FHI-aims is :             27.211384500 eV

  Before relying on these values, please be sure to understand exactly which
  total energy value is referred to by a given number. Different objects may
  all carry the same name 'total energy'. Definitions:

  Total energy of the DFT / Hartree-Fock s.c.f. calculation:
  | Note that this energy does not include ANY quantities calculated after the
  | s.c.f. cycle, in particular not ANY RPA, MP2, etc. many-body perturbation terms.

  Final zero-broadening corrected energy:
  | For metallic systems only, a broadening of the occupation numbers at the Fermi
  | level can be extrapolated back to zero broadening by an electron-gas inspired
  | formula. For all systems that are not real metals, this value can be
  | meaningless and should be avoided.

------------------------------------------------------------------------------

------------------------------------------------------------
          Leaving FHI-aims.
          Date     :  20220120, Time     :  152728.585

          Computational steps:
          | Number of self-consistency cycles          :           29

          Detailed time accounting                     :  max(cpu_time)    wall_clock(cpu1)
          | Total time                                 :        1.002 s           1.091 s
          | Preparation time                           :        0.080 s           0.081 s
          | Grid partitioning                          :        0.008 s           0.007 s
          | Preloading free-atom quantities on grid    :        0.004 s           0.003 s
          | Free-atom superposition energy             :        0.003 s           0.003 s
          | Total time for integrations                :        0.301 s           0.302 s
          | Total time for solution of K.-S. equations :        0.051 s           0.054 s
          | Total time for density update              :        0.204 s           0.181 s
          | Total time for mixing                      :        0.052 s           0.053 s
          | Total time for Hartree multipole update    :        0.041 s           0.039 s
          | Total time for Hartree multipole sum       :        0.141 s           0.145 s
          | Total time for total energy evaluation     :        0.005 s           0.014 s
          | Total time for scaled ZORA corrections     :        0.000 s           0.000 s
          | Total time for vdW correction              :        0.002 s           0.003 s

          Have a nice day.
------------------------------------------------------------
