  MPI-parallelism will be employed.
------------------------------------------------------------
          Invoking FHI-aims ...
          Version 052014
          Git rev. (modified): 096c982 Merge branch master of fhiaims:/pub/localo[...]
          Compiled on 2016/12/16 at 15:22:01 on host login02.hpc.iitd.ac.in.

          When using FHI-aims, please cite the following reference:

          Volker Blum, Ralf Gehrke, Felix Hanke, Paula Havu,
          Ville Havu, Xinguo Ren, Karsten Reuter, and Matthias Scheffler,
          'Ab Initio Molecular Simulations with Numeric Atom-Centered Orbitals: FHI-aims',
          Computer Physics Communications 180, 2175-2196 (2009)

          For any questions about FHI-aims, please visit the aimsclub website
          with its forums and wiki. Contributions to both the forums and the
          wiki are warmly encouraged - they are for you, and everyone is welcome there.

------------------------------------------------------------

  Date     :  20220120, Time     :  153324.638
  Time zero on CPU 1             :   0.132300000000000E-01  s.
  Internal wall clock time zero  :           411924804.638  s.

  Using        8 parallel tasks.
  Task        0 on host csky029 reporting.
  Task        1 on host csky029 reporting.
  Task        2 on host csky029 reporting.
  Task        3 on host csky029 reporting.
  Task        4 on host csky029 reporting.
  Task        5 on host csky029 reporting.
  Task        6 on host csky029 reporting.
  Task        7 on host csky029 reporting.

  Performing system and environment tests:
  | Environment variable OMP_NUM_THREADS correctly set to 1.
  | Stacksize not measured: no C compiler
  | Checking for scalapack...
  | Testing pdtran()...
  | All pdtran() tests passed.

  Obtaining array dimensions for all initial allocations:
  
  -----------------------------------------------------------------------
  Parsing control.in (first pass over file, find array dimensions only).
  The contents of control.in will be repeated verbatim below
  unless switched off by setting 'verbatim_writeout .false.' .
  in the first line of control.in .
  -----------------------------------------------------------------------
  
    xc               pbe
    spin             collinear
    default_initial_moment hund
    relativistic     atomic_zora scalar 1e-9
    occupation_type  gaussian 0.001
    charge        0
    vdw_correction_hirshfeld
    KS_method        scalapack_fast
    mixer            pulay
    charge_mix_param  0.4
    spin_mix_param    0.6
    sc_accuracy_rho  1E-4
    sc_accuracy_eev  1E-5
    sc_accuracy_etot 1E-5
    sc_iter_limit    100
    empty_states     10
  ################################################################################
  #
  #  FHI-aims code project
  # Volker Blum, Fritz Haber Institute Berlin, 2009
  #
  #  Suggested "tight" defaults for H atom (to be pasted into control.in file)
  #
  ################################################################################
    species        H
  #     global species definitions
      nucleus             1
      mass                1.00794
  #
      l_hartree           6
  #
      cut_pot             4.0  2.0  1.0
      basis_dep_cutoff    1e-4
  #
      radial_base         24 7.0
      radial_multiplier   2
      angular_grids       specified
        division   0.1930   50
        division   0.3175  110
        division   0.4293  194
        division   0.5066  302
        division   0.5626  434
  #      division   0.5922  590
  #      division   0.6227  974
  #      division   0.6868 1202
  #      outer_grid  770
        outer_grid  434
  ################################################################################
  #
  #  Definition of "minimal" basis
  #
  ################################################################################
  #     valence basis states
      valence      1  s   1.
  #     ion occupancy
      ion_occ      1  s   0.5
  ################################################################################
  #
  #  Suggested additional basis functions. For production calculations,
  #  uncomment them one after another (the most important basis functions are
  #  listed first).
  #
  #  Basis constructed for dimers: 0.5 A, 0.7 A, 1.0 A, 1.5 A, 2.5 A
  #
  ################################################################################
  #  "First tier" - improvements: -1014.90 meV to -62.69 meV
       hydro 2 s 2.1
       hydro 2 p 3.5
  #  "Second tier" - improvements: -12.89 meV to -1.83 meV
       hydro 1 s 0.85
       hydro 2 p 3.7
       hydro 2 s 1.2
       hydro 3 d 7
  #  "Third tier" - improvements: -0.25 meV to -0.12 meV
  #     hydro 4 f 11.2
  #     hydro 3 p 4.8
  #     hydro 4 d 9
  #     hydro 3 s 3.2
  ################################################################################
  #
  # For methods that use the localized form of the "resolution of identity" for
  # the two-electron Coulomb operator (RI_method LVL), particularly Hartree-Fock and
  # hybrid density functional calculations, the highest accuracy can be obtained by
  # uncommenting the line beginning with "for_aux"  below, thus adding an extra g radial
  # function to the construction of the product basis set for the expansion.
  # See Ref. New J. Phys. 17, 093020 (2015) for more information, particularly Figs. 1 and 6.
  #
  ################################################################################
  #
  # for_aux hydro 5 g 6.0
  
  -----------------------------------------------------------------------
  Completed first pass over input file control.in .
  -----------------------------------------------------------------------
  
  
  -----------------------------------------------------------------------
  Parsing geometry.in (first pass over file, find array dimensions only).
  The contents of geometry.in will be repeated verbatim below
  unless switched off by setting 'verbatim_writeout .false.' .
  in the first line of geometry.in .
  -----------------------------------------------------------------------
  
  atom 0 0 0 H
  atom 0 0 0.85 H
  
  -----------------------------------------------------------------------
  Completed first pass over input file geometry.in .
  -----------------------------------------------------------------------
  

  Basic array size parameters:
  | Number of species                 :        1
  | Number of atoms                   :        2
  | Max. basis fn. angular momentum   :        2
  | Max. atomic/ionic basis occupied n:        1
  | Max. number of basis fn. types    :        2
  | Max. radial fns per species/type  :        6
  | Max. logarithmic grid size        :     1131
  | Max. radial integration grid size :       49
  | Max. angular integration grid size:      434
  | Max. angular grid division number :        8
  | Radial grid for Hartree potential :     1131
  | Number of spin channels           :        2

------------------------------------------------------------
          Reading file control.in.
------------------------------------------------------------
  XC: Using PBE gradient-corrected functionals.
  Spin treatment: Spin density functional theory - collinear spins.
  Initial spin moment per atom set according to Hund's rules.
  Scalar relativistic treatment of kinetic energy: on-site free-atom approximation to ZORA.
  Occupation type: Gaussian broadening, width =   0.100000E-02 eV.
  Charge =   0.000000E+00: Neutral system requested explicitly.
  Using non-empirical van der Waals correction (Hirshfeld partitioning):
  Kohn-Sham eigenvalues and eigenfunctions calculated by the ELPA eigensolver library.
  Using pulay charge density mixing.
  Charge density mixing - mixing parameter:     0.4000
  Spin density mixing - mixing parameter:     0.6000
  Convergence accuracy of self-consistent charge density: 0.1000E-03
  Convergence accuracy of sum of eigenvalues: 0.1000E-04
  Convergence accuracy of total energy: 0.1000E-04
  Maximum number of s.-c. iterations  :   100
  Number of empty states per atom:       10
 
  Reading configuration options for species H                   .
  | Found nuclear charge :   1.0000
  | Found atomic mass :    1.00794000000000      amu
  | Found l_max for Hartree potential  :   6
  | Found cutoff potl. onset [A], width [A], scale factor :    4.00000    2.00000    1.00000
  | Threshold for basis-dependent cutoff potential is   0.100000E-03
  | Found data for basic radial integration grid :    24 points, outermost radius =    7.000 A
  | Found multiplier for basic radial grid :   2
  | Found angular grid specification: user-specified.
  | Specified grid contains     6 separate shells.
  | Check grid settings after all constraints further below.
  | Found free-atom valence shell :  1 s   1.000
  | No ionic wave fns used. Skipping ion_occ.
  | Found hydrogenic basis function :  2 s   2.100
  | Found hydrogenic basis function :  2 p   3.500
  | Found hydrogenic basis function :  1 s   0.850
  | Found hydrogenic basis function :  2 p   3.700
  | Found hydrogenic basis function :  2 s   1.200
  | Found hydrogenic basis function :  3 d   7.000
  Species H                   : Missing cutoff potential type.
  Defaulting to exp(1/x)/(1-x)^2 type cutoff potential.
  Species H : No 'logarithmic' tag. Using default grid for free atom:
  | Default logarithmic grid data [bohr] : 0.1000E-03 0.1000E+03 0.1012E+01
  Species H : On-site basis accuracy parameter (for Gram-Schmidt orthonormalisation) not specified.
  Using default value basis_acc =  0.1000000E-03.
  Species H                   : Using default innermost maximum threshold i_radial=  2 for radial functions.
  Species H                   : Default cutoff onset for free atom density etc. : 0.40000000E+01 AA.
  Species H                   : Basic radial grid will be enhanced according to radial_multiplier =   2, to contain    49 grid points.
 
  Finished reading input file 'control.in'. Consistency checks are next.
 
  Target number of points in a grid batch is not set. Defaulting to  100
  Method for grid partitioning is not set. Defaulting to parallel hash+maxmin partitioning.
  Batch size limit is not set. Defaulting to    200
  By default, will store active basis functions for each batch.
  If in need of memory, prune_basis_once .false. can be used to disable this option.
  communication_type for Hartree potential was not specified.
  Defaulting to calc_hartree .
  Pulay mixer: Number of relevant iterations not set.
  Defaulting to    8 iterations.
  Pulay mixer: Number of initial linear mixing iterations not set.
  Defaulting to    0 iterations.
  Work space size for distributed Hartree potential not set.
  Defaulting to   0.200000E+03 MB.
  Algorithm-dependent basis array size parameters:
  | n_max_pulay                         :        8
  Calculation of forces was not defined in control.in. No forces will be calculated.
  Geometry relaxation not requested: no relaxation will be performed.
  No accuracy limit for integral partition fn. given. Defaulting to 0.1000E-14.
  No threshold value for u(r) in integrations given. Defaulting to 0.1000E-05.
  No accuracy for occupation numbers given. Defaulting to 0.1000E-07.
  No threshold value for occupation numbers given. Defaulting to 0.0000E+00.
  No accuracy for fermi level given. Defaulting to 0.1000E-19.
  Maximum # of iterations to find E_F not set. Defaulting to  200.
  Will not use alltoall communication since running on < 1024 CPUs.
  Threshold for basis singularities not set.
  Default threshold for basis singularities: 0.1000E-04
  partition_type (choice of integration weights) for integrals was not specified.
  | Using a version of the partition function of Stratmann and coworkers ('stratmann_smoother').
  | At each grid point, the set of atoms used to build the partition table is smoothly restricted to
  | only those atoms whose free-atom density would be non-zero at that grid point.
  Partitioning for Hartree potential was not defined. Using partition_type for integrals.
  | Adjusted default value of keyword multip_moments_threshold to:       0.10000000E-11
  | This value may affect high angular momentum components of the Hartree potential in periodic systems.
  No q(lm)/r^(l+1) cutoff set for long-range Hartree potential.
  | Using default value of  0.100000E-09 .
  | Verify using the multipole_threshold keyword.
  Defaulting to new monopole extrapolation.
  Density update method: automatic selection selected.
------------------------------------------------------------


------------------------------------------------------------
          Reading geometry description geometry.in.
------------------------------------------------------------
  Input structure read successfully.
  The structure contains        2 atoms,  and a total of          2.000 electrons.

  Input geometry:
  | No unit cell requested.
  | Atomic structure:
  |       Atom                x [A]            y [A]            z [A]
  |    1: Species H              0.000000         0.000000         0.000000
  |    2: Species H              0.000000         0.000000         0.850000
  |

  | The smallest distance between any two atoms is         0.85000000 AA.
  |
  | The first atom of this pair is atom number                      1 .
  | The second atom of this pair is atom number                     2 .

  Initial moments and charges:
  |  Atom   Moment         Charge        Species
  |     1  (Hund's rule)   0.000000E+00   H
  |     2  (Hund's rule)   0.000000E+00   H

  Structure-dependent array size parameters: 
  | Number of distinct atom types in initial rho :        1
  | Maximum number of distinct radial functions  :        7
  | Maximum number of basis functions            :       30
  | Number of Kohn-Sham states (occupied + empty):       11
------------------------------------------------------------

------------------------------------------------------------
          Preparing all fixed parts of the calculation.
------------------------------------------------------------
  Determining machine precision:
    2.225073858507201E-308
  Setting up grids for atomic and cluster calculations.

  Creating wave function, potential, and density for free atoms.

  Species: H

  List of occupied orbitals and eigenvalues:
    n    l              occ      energy [Ha]    energy [eV]
    1    0           1.0000        -0.238386        -6.4868

  Spin-polarized or charged system:
  Charge density initialized according to selected moments and charges.

  Creating spin-polarized density from free atoms.

  Species: H
  Charge:   0.000000
  applying Hund's rules ...

  List of occupied orbitals and eigenvalues:
    n    l      energy [Ha]    energy [eV]    occupation
  Spin-up
    1    0        -0.278991        -7.5917     1.00000000
  Spin-down
    1    0         0.090850         2.4721     0.00000000

  Creating fixed part of basis set: Ionic, confined, hydrogenic.
 
  H                    hydrogenic:
 
  List of hydrogenic basis orbitals: 
    n    l      effective z      eigenvalue [eV]  inner max. [A]     outer max. [A]     outer radius [A]   
    2    0         2.100000       -14.9965           0.193243           1.317208           5.373006
    2    1         3.500000       -41.6672           0.602369           0.602369           4.056063
    1    0         0.850000        -9.8292           0.624871           0.624871           5.373006
    2    1         3.700000       -46.5653           0.573622           0.573622           3.910002
    2    0         1.200000        -4.5995           0.334980           2.228188           5.505995
    3    2         7.000000       -74.0753           0.680699           0.680699           3.769201
 

  Adding cutoff potential to free-atom effective potential.
  Creating atomic-like basis functions for current effective potential.

  Species H                   :

  List of atomic basis orbitals and eigenvalues:
    n    l      energy [Ha]    energy [eV]    outer radius [A]
    1    0        -0.238386        -6.4868       5.373006

  Assembling full basis from fixed parts.
  | Species H :   atomic orbital   1 s accepted.
  | Species H :    hydro orbital   2 s accepted.
  | Species H :    hydro orbital   1 s accepted.
  | Species H :    hydro orbital   2 s accepted.
  | Species H :    hydro orbital   2 p accepted.
  | Species H :    hydro orbital   2 p accepted.
  | Species H :    hydro orbital   3 d accepted.
 
  Basis size parameters after reduction:
  | Total number of radial functions:        7
  | Total number of basis functions :       30
 
  Testing on-site integration grid accuracy.
  |  Species  Function  <phi|h_atom|phi> (log., in eV)  <phi|h_atom|phi> (rad., in eV)
           1        1                 -6.4870767962                 -6.4871688290
           1        2                 13.5032046589                 13.5028982997
           1        3                 32.8195184817                 32.8119941656
           1        4                 33.8513856511                 33.7670005767 ***
           1        5                 28.8544614965                 28.8544615203
           1        6                 59.6326952547                 59.6327656460
           1        7                 60.2719308513                 60.2719305949
 * Note: Onsite integrals marked "***" above are less accurate than
 * onsite_accuracy_threshold =    0.03000 eV. Usually, this is harmless.
 * When in doubt, tighten the "radial" and/or "radial_multiplier" flags to check.

  Preparing densities etc. for the partition functions (integrals / Hartree potential).

  Preparations completed.
  max(cpu_time)          :      0.089 s.
  Wall clock time (cpu1) :      0.088 s.
------------------------------------------------------------

------------------------------------------------------------
          Begin self-consistency loop: Initialization.

          Date     :  20220120, Time     :  153324.801
------------------------------------------------------------

  Initializing index lists of integration centers etc. from given atomic structure:
  | Number of centers in hartree potential         :         2
  | Number of centers in hartree multipole         :         2
  | Number of centers in electron density summation:         2
  | Number of centers in basis integrals           :         2
  | Number of centers in integrals                 :         2
  Using modified Scalapack Eigenvalue solver (ELPA)
  * Using 8 tasks for Scalapack Eigenvalue solver.
  Detailed listing of tasks and assigned k-points:
  (for non-periodic systems, the "k-point" denotes an internal label only)
   Task     0 k-point     1 on csky029
   Task     1 k-point     1 on csky029
   Task     2 k-point     1 on csky029
   Task     3 k-point     1 on csky029
   Task     4 k-point     1 on csky029
   Task     5 k-point     1 on csky029
   Task     6 k-point     1 on csky029
   Task     7 k-point     1 on csky029
  Tasks:     8 split into      4 X      2 BLACS grid
  Calculating blocksize based on n_basis =           30 max_nprow =            4 max_npcol =            2
  Scalapack blocksize set to:            4
  Required Scalapack workspace - INTEGER:            1 REAL:             1
  Partitioning the integration grid into batches with parallel hashing+maxmin method.
  | Number of batches:      445
  | Maximal batch size:     197
  | Minimal batch size:      49
  | Average batch size:      64.944
  | Standard deviation of batch sizes:      18.532

  Integration load balanced across     8 MPI tasks.
  Work distribution over tasks is as follows:
  Task     0 has       3580 integration points.
  Task     1 has       3588 integration points.
  Task     2 has       3660 integration points.
  Task     3 has       3629 integration points.
  Task     4 has       3676 integration points.
  Task     5 has       3584 integration points.
  Task     6 has       3596 integration points.
  Task     7 has       3587 integration points.
  Initializing partition tables, free-atom densities, potentials, etc. across the integration grid (initialize_grid_storage).
  | initialize_grid_storage: Actual outermost partition radius vs. multipole_radius_free
  | (-- VB: in principle, multipole_radius_free should be larger, hence this output)
  | Species        1: outer_partition_radius =              6.000000000000000 AA, multipole_radius_free =              6.071692442739658 AA.
  | Original list of interatomic distances with           2 x          2 entries is created.
  | Net number of integration points:    28900
  | of which are non-zero points    :    26782
  Obtaining max. number of non-zero basis functions in each batch (get_n_compute_maxes).
  | Maximal number of non-zero basis functions:       30 in task     0
  | Maximal number of non-zero basis functions:       30 in task     1
  | Maximal number of non-zero basis functions:       30 in task     2
  | Maximal number of non-zero basis functions:       30 in task     3
  | Maximal number of non-zero basis functions:       30 in task     4
  | Maximal number of non-zero basis functions:       30 in task     5
  | Maximal number of non-zero basis functions:       30 in task     6
  | Maximal number of non-zero basis functions:       30 in task     7
  Selecting the method for density update.
  Loop over occupied states selected for charge density update.
  Integrating Hamiltonian matrix: batch-based integration.
  Time summed over all CPUs for integration: real work        0.086 s, elapsed        0.107 s
  Integrating overlap matrix.
  Time summed over all CPUs for integration: real work        0.022 s, elapsed        0.027 s
  Deallocating overlap matrix.

  Updating Kohn-Sham eigenvalues, eigenvectors, occupation numbers, and Fermi level.
  Solving generalized eigenproblem
  Solving real symmetric generalised eigenvalue problem by standard ScaLAPACK.
  Transforming overlap matrix with ScaLAPACK and checking for singularities.
  : Overlap matrix is nonsingular, using Cholesky decomposition
  | Lowest eigenvalue:  0.491484E-03
  Factoring overlap matrix with Cholesky decomposition
  Using Cholesky factor for transformation
  Using 1-stage real ELPA solver
  Solving real symmetric generalised eigenvalue problem by standard ScaLAPACK.
  Using Cholesky factor for transformation
  Using 1-stage real ELPA solver
  Determining occupation numbers for Kohn-Sham eigenstates.
  | Chemical potential (Fermi level) in eV                 : -.77847470E+00
  | Error in electron count due to remaining E_F inaccuracy: 0.00000000E+00
  | Maximum occupation number of highest empty state:  0.00E+00

  Writing Kohn-Sham eigenvalues.

  Spin-up eigenvalues:

  State    Occupation    Eigenvalue [Ha]    Eigenvalue [eV]
      1       1.00000          -0.542338          -14.75777
      2       1.00000          -0.078101           -2.12522
      3       0.00000           0.012981            0.35322
      4       0.00000           0.096508            2.62612
      5       0.00000           0.214783            5.84454
      6       0.00000           0.214783            5.84454
      7       0.00000           0.312259            8.49700
      8       0.00000           0.438447           11.93076
      9       0.00000           0.625345           17.01650
     10       0.00000           0.653251           17.77588
     11       0.00000           0.653251           17.77588

  Spin-down eigenvalues:

  State    Occupation    Eigenvalue [Ha]    Eigenvalue [eV]
      1       0.00000           0.099351            2.70347
      2       0.00000           0.116224            3.16262
      3       0.00000           0.504324           13.72336
      4       0.00000           0.540471           14.70698
      5       0.00000           1.137663           30.95739
      6       0.00000           1.137663           30.95739
      7       0.00000           1.260172           34.29103
      8       0.00000           1.515269           41.23258
      9       0.00000           1.515269           41.23258
     10       0.00000           1.551650           42.22254
     11       0.00000           1.637927           44.57025

  Current spin moment of the entire structure :
  | N = N_up - N_down :    2.00
  | S                 :    1.00
  | J                 :    3.00

  Highest occupied state (VBM) at     -2.12522301 eV
  | Occupation number:      1.00000000
  | Spin channel:        1

  Lowest unoccupied state (CBM) at     0.35322358 eV
  | Occupation number:      0.00000000
  | Spin channel:        1

  Overall HOMO-LUMO gap:      2.47844658 eV.
  Calculating total energy contributions from superposition of free atom densities.

  Total energy components:
  | Sum of eigenvalues            :          -0.62043856 Ha         -16.88299223 eV
  | XC energy correction          :          -0.67510650 Ha         -18.37058246 eV
  | XC potential correction       :           0.87055553 Ha          23.68902137 eV
  | Free-atom electrostatic energy:          -0.41063853 Ha         -11.17404304 eV
  | Hartree energy correction     :           0.00000000 Ha           0.00000000 eV
  | van der Waals energy corr.    :           0.00000000 Ha           0.00000000 eV
  | Entropy correction            :           0.00000000 Ha           0.00000000 eV
  | ---------------------------
  | Total energy                  :          -0.83562806 Ha         -22.73859636 eV
  | Total energy, T -> 0          :          -0.83562806 Ha         -22.73859636 eV  <-- do not rely on this value for anything but (periodic) metals
  | Electronic free energy        :          -0.83562806 Ha         -22.73859636 eV

  Derived energy quantities:
  | Kinetic energy                :           1.15601853 Ha          31.45686474 eV
  | Electrostatic energy          :          -1.31654009 Ha         -35.82487864 eV
  | Energy correction for multipole
  | error in Hartree potential    :           0.00000000 Ha           0.00000000 eV
  | Sum of eigenvalues per atom                           :          -8.44149611 eV
  | Total energy (T->0) per atom                          :         -11.36929818 eV  <-- do not rely on this value for anything but (periodic) metals
  | Electronic free energy per atom                       :         -11.36929818 eV
  Initialize hartree_potential_storage
  Max. number of atoms included in rho_multipole:            2

  End scf initialization - timings             :  max(cpu_time)    wall_clock(cpu1)
  | Time for scf. initialization               :        0.047 s           0.047 s
  | Boundary condition initialization          :        0.000 s           0.001 s
  | Integration                                :        0.017 s           0.017 s
  | Solution of K.-S. eqns.                    :        0.008 s           0.008 s
  | Grid partitioning                          :        0.007 s           0.007 s
  | Preloading free-atom quantities on grid    :        0.005 s           0.004 s
  | Free-atom superposition energy             :        0.003 s           0.002 s
  | Total energy evaluation                    :        0.000 s           0.001 s
------------------------------------------------------------

------------------------------------------------------------
          Begin self-consistency iteration #    1

  Date     :  20220120, Time     :  153324.849
------------------------------------------------------------
  Evaluating new KS density.
  Integration grid: deviation in total charge (<rho> - N_e) =   4.618914E-07
  | <rho_up-rho_dn> = N_up-N_dn =      2.0000; <|rho_up-rho_dn|> =      2.0670
  Pulay mixing of updated and previous charge densities.

  Evaluating partitioned Hartree potential by multipole expansion.
  | Analytical far-field extrapolation by fixed multipoles:
  | Hartree multipole sum: apparent total charge =  -0.576311E-05
  Summing up the Hartree potential.
  Time summed over all CPUs for potential: real work        0.034 s, elapsed        0.035 s
  | RMS charge density error from multipole expansion :   0.665498E-03

  Integrating Hamiltonian matrix: batch-based integration.
  Time summed over all CPUs for integration: real work        0.071 s, elapsed        0.077 s

  Updating Kohn-Sham eigenvalues, eigenvectors, occupation numbers, and Fermi level.
  Solving generalized eigenproblem
  Solving real symmetric generalised eigenvalue problem by standard ScaLAPACK.
  Using Cholesky factor for transformation
  Using 1-stage real ELPA solver
  Solving real symmetric generalised eigenvalue problem by standard ScaLAPACK.
  Using Cholesky factor for transformation
  Using 1-stage real ELPA solver
  Determining occupation numbers for Kohn-Sham eigenstates.
  | Chemical potential (Fermi level) in eV                 : -.39568046E+01
  | Error in electron count due to remaining E_F inaccuracy: 0.00000000E+00
  | Maximum occupation number of highest empty state:  0.00E+00

  Writing Kohn-Sham eigenvalues.

  Spin-up eigenvalues:

  State    Occupation    Eigenvalue [Ha]    Eigenvalue [eV]
      1       1.00000          -0.410191          -11.16186
      2       0.00000           0.069635            1.89487
      3       0.00000           0.073963            2.01263
      4       0.00000           0.192942            5.25021
      5       0.00000           0.268444            7.30475
      6       0.00000           0.268444            7.30475
      7       0.00000           0.379773           10.33416
      8       0.00000           0.577871           15.72467
      9       0.00000           0.767787           20.89254
     10       0.00000           0.767787           20.89254
     11       0.00000           0.828585           22.54694

  Spin-down eigenvalues:

  State    Occupation    Eigenvalue [Ha]    Eigenvalue [eV]
      1       1.00000          -0.212539           -5.78347
      2       0.00000           0.091623            2.49318
      3       0.00000           0.092617            2.52024
      4       0.00000           0.252757            6.87787
      5       0.00000           0.376693           10.25033
      6       0.00000           0.376693           10.25033
      7       0.00000           0.453632           12.34396
      8       0.00000           0.686500           18.68063
      9       0.00000           0.856928           23.31820
     10       0.00000           0.856928           23.31820
     11       0.00000           0.866987           23.59192

  Current spin moment of the entire structure :
  | N = N_up - N_down :    0.00
  | S                 :    0.00
  | J                 :    1.00

  Highest occupied state (VBM) at     -5.78347139 eV
  | Occupation number:      1.00000000
  | Spin channel:        2

  Lowest unoccupied state (CBM) at     1.89487260 eV
  | Occupation number:      0.00000000
  | Spin channel:        1

  Overall HOMO-LUMO gap:      7.67834399 eV.

  Total energy components:
  | Sum of eigenvalues            :          -0.62272934 Ha         -16.94532750 eV
  | XC energy correction          :          -0.41968535 Ha         -11.42021934 eV
  | XC potential correction       :           0.54094350 Ha          14.71982155 eV
  | Free-atom electrostatic energy:          -0.41063853 Ha         -11.17404304 eV
  | Hartree energy correction     :          -0.00565843 Ha          -0.15397372 eV
  | van der Waals energy corr.    :           0.00000000 Ha           0.00000000 eV
  | Entropy correction            :           0.00000000 Ha           0.00000000 eV
  | ---------------------------
  | Total energy                  :          -0.91776815 Ha         -24.97374205 eV
  | Total energy, T -> 0          :          -0.91776815 Ha         -24.97374205 eV  <-- do not rely on this value for anything but (periodic) metals
  | Electronic free energy        :          -0.91776815 Ha         -24.97374205 eV

  Derived energy quantities:
  | Kinetic energy                :           0.87584511 Ha          23.83295808 eV
  | Electrostatic energy          :          -1.37392792 Ha         -37.38648078 eV
  | Energy correction for multipole
  | error in Hartree potential    :          -0.00016328 Ha          -0.00444320 eV
  | Sum of eigenvalues per atom                           :          -8.47266375 eV
  | Total energy (T->0) per atom                          :         -12.48687102 eV  <-- do not rely on this value for anything but (periodic) metals
  | Electronic free energy per atom                       :         -12.48687102 eV

  Self-consistency convergence accuracy:
  | Change of charge/spin density : 0.4422E-01 0.4422E-01
  | Change of sum of eigenvalues  : -.6234E-01 eV
  | Change of total energy        : -.2235E+01 eV

  End self-consistency iteration #     1       :  max(cpu_time)    wall_clock(cpu1)
  | Time for this iteration                    :        0.031 s           0.030 s
  | Charge density update                      :        0.007 s           0.007 s
  | Density mixing                             :        0.001 s           0.000 s
  | Hartree multipole update                   :        0.001 s           0.002 s
  | Hartree multipole summation                :        0.005 s           0.005 s
  | Integration                                :        0.010 s           0.010 s
  | Solution of K.-S. eqns.                    :        0.004 s           0.004 s
  | Total energy evaluation                    :        0.000 s           0.000 s
------------------------------------------------------------

------------------------------------------------------------
          Begin self-consistency iteration #    2

  Date     :  20220120, Time     :  153324.881
------------------------------------------------------------
  Evaluating new KS density.
  Integration grid: deviation in total charge (<rho> - N_e) =   2.771348E-07
  | <rho_up-rho_dn> = N_up-N_dn =     -2.0000; <|rho_up-rho_dn|> =      2.0000
  Pulay mixing of updated and previous charge densities.

  Evaluating partitioned Hartree potential by multipole expansion.
  | Analytical far-field extrapolation by fixed multipoles:
  | Hartree multipole sum: apparent total charge =  -0.567974E-05
  Summing up the Hartree potential.
  Time summed over all CPUs for potential: real work        0.034 s, elapsed        0.041 s
  | RMS charge density error from multipole expansion :   0.643349E-03

  Integrating Hamiltonian matrix: batch-based integration.
  Time summed over all CPUs for integration: real work        0.071 s, elapsed        0.081 s

  Updating Kohn-Sham eigenvalues, eigenvectors, occupation numbers, and Fermi level.
  Solving generalized eigenproblem
  Solving real symmetric generalised eigenvalue problem by standard ScaLAPACK.
  Using Cholesky factor for transformation
  Using 1-stage real ELPA solver
  Solving real symmetric generalised eigenvalue problem by standard ScaLAPACK.
  Using Cholesky factor for transformation
  Using 1-stage real ELPA solver
  Determining occupation numbers for Kohn-Sham eigenstates.
  | Chemical potential (Fermi level) in eV                 : -.60647550E+01
  | Error in electron count due to remaining E_F inaccuracy: 0.00000000E+00
  | Maximum occupation number of highest empty state:  0.00E+00

  Current spin moment of the entire structure :
  | N = N_up - N_down :    0.00
  | S                 :    0.00
  | J                 :    1.00

  Highest occupied state (VBM) at     -7.28235996 eV
  | Occupation number:      1.00000000
  | Spin channel:        2

  Lowest unoccupied state (CBM) at     0.78543445 eV
  | Occupation number:      0.00000000
  | Spin channel:        1

  Overall HOMO-LUMO gap:      8.06779441 eV.

  Total energy components:
  | Sum of eigenvalues            :          -0.77084469 Ha         -20.97575112 eV
  | XC energy correction          :          -0.55751856 Ha         -15.17085197 eV
  | XC potential correction       :           0.72025403 Ha          19.59910933 eV
  | Free-atom electrostatic energy:          -0.41063853 Ha         -11.17404304 eV
  | Hartree energy correction     :          -0.00815532 Ha          -0.22191746 eV
  | van der Waals energy corr.    :           0.00000000 Ha           0.00000000 eV
  | Entropy correction            :           0.00000000 Ha           0.00000000 eV
  | ---------------------------
  | Total energy                  :          -1.02690307 Ha         -27.94345426 eV
  | Total energy, T -> 0          :          -1.02690307 Ha         -27.94345426 eV  <-- do not rely on this value for anything but (periodic) metals
  | Electronic free energy        :          -1.02690307 Ha         -27.94345426 eV

  Derived energy quantities:
  | Kinetic energy                :           0.90634843 Ha          24.66299571 eV
  | Electrostatic energy          :          -1.37573294 Ha         -37.43559800 eV
  | Energy correction for multipole
  | error in Hartree potential    :          -0.00015962 Ha          -0.00434338 eV
  | Sum of eigenvalues per atom                           :         -10.48787556 eV
  | Total energy (T->0) per atom                          :         -13.97172713 eV  <-- do not rely on this value for anything but (periodic) metals
  | Electronic free energy per atom                       :         -13.97172713 eV

  Self-consistency convergence accuracy:
  | Change of charge/spin density : 0.1151E+00 0.2782E+00
  | Change of sum of eigenvalues  : -.4030E+01 eV
  | Change of total energy        : -.2970E+01 eV

  End self-consistency iteration #     2       :  max(cpu_time)    wall_clock(cpu1)
  | Time for this iteration                    :        0.029 s           0.029 s
  | Charge density update                      :        0.007 s           0.007 s
  | Density mixing                             :        0.001 s           0.001 s
  | Hartree multipole update                   :        0.001 s           0.001 s
  | Hartree multipole summation                :        0.005 s           0.006 s
  | Integration                                :        0.010 s           0.010 s
  | Solution of K.-S. eqns.                    :        0.002 s           0.002 s
  | Total energy evaluation                    :        0.000 s           0.000 s
------------------------------------------------------------

------------------------------------------------------------
          Begin self-consistency iteration #    3

  Date     :  20220120, Time     :  153324.911
------------------------------------------------------------
  Evaluating new KS density.
  Integration grid: deviation in total charge (<rho> - N_e) =   2.727174E-07
  | <rho_up-rho_dn> = N_up-N_dn =     -1.9522; <|rho_up-rho_dn|> =      1.9522
  Pulay mixing of updated and previous charge densities.

  Evaluating partitioned Hartree potential by multipole expansion.
  | Analytical far-field extrapolation by fixed multipoles:
  | Hartree multipole sum: apparent total charge =  -0.572837E-05
  Summing up the Hartree potential.
  Time summed over all CPUs for potential: real work        0.035 s, elapsed        0.043 s
  | RMS charge density error from multipole expansion :   0.622468E-03

  Integrating Hamiltonian matrix: batch-based integration.
  Time summed over all CPUs for integration: real work        0.070 s, elapsed        0.079 s

  Updating Kohn-Sham eigenvalues, eigenvectors, occupation numbers, and Fermi level.
  Solving generalized eigenproblem
  Solving real symmetric generalised eigenvalue problem by standard ScaLAPACK.
  Using Cholesky factor for transformation
  Using 1-stage real ELPA solver
  Solving real symmetric generalised eigenvalue problem by standard ScaLAPACK.
  Using Cholesky factor for transformation
  Using 1-stage real ELPA solver
  Determining occupation numbers for Kohn-Sham eigenstates.
  | Chemical potential (Fermi level) in eV                 : -.59820161E+01
  | Error in electron count due to remaining E_F inaccuracy: 0.00000000E+00
  | Maximum occupation number of highest empty state:  0.00E+00

  Current spin moment of the entire structure :
  | N = N_up - N_down :    0.00
  | S                 :    0.00
  | J                 :    1.00

  Highest occupied state (VBM) at     -6.87629666 eV
  | Occupation number:      1.00000000
  | Spin channel:        2

  Lowest unoccupied state (CBM) at     0.94010316 eV
  | Occupation number:      0.00000000
  | Spin channel:        1

  Overall HOMO-LUMO gap:      7.81639982 eV.

  Total energy components:
  | Sum of eigenvalues            :          -0.75283120 Ha         -20.48557914 eV
  | XC energy correction          :          -0.54525260 Ha         -14.83707819 eV
  | XC potential correction       :           0.70443169 Ha          19.16856146 eV
  | Free-atom electrostatic energy:          -0.41063853 Ha         -11.17404304 eV
  | Hartree energy correction     :          -0.00401613 Ha          -0.10928459 eV
  | van der Waals energy corr.    :           0.00000000 Ha           0.00000000 eV
  | Entropy correction            :           0.00000000 Ha           0.00000000 eV
  | ---------------------------
  | Total energy                  :          -1.00830678 Ha         -27.43742350 eV
  | Total energy, T -> 0          :          -1.00830678 Ha         -27.43742350 eV  <-- do not rely on this value for anything but (periodic) metals
  | Electronic free energy        :          -1.00830678 Ha         -27.43742350 eV

  Derived energy quantities:
  | Kinetic energy                :           0.90441392 Ha          24.61035488 eV
  | Electrostatic energy          :          -1.36746810 Ha         -37.21070018 eV
  | Energy correction for multipole
  | error in Hartree potential    :          -0.00015299 Ha          -0.00416302 eV
  | Sum of eigenvalues per atom                           :         -10.24278957 eV
  | Total energy (T->0) per atom                          :         -13.71871175 eV  <-- do not rely on this value for anything but (periodic) metals
  | Electronic free energy per atom                       :         -13.71871175 eV

  Self-consistency convergence accuracy:
  | Change of charge/spin density : 0.1318E+00 0.2665E+00
  | Change of sum of eigenvalues  : 0.4902E+00 eV
  | Change of total energy        : 0.5060E+00 eV

  End self-consistency iteration #     3       :  max(cpu_time)    wall_clock(cpu1)
  | Time for this iteration                    :        0.030 s           0.030 s
  | Charge density update                      :        0.008 s           0.008 s
  | Density mixing                             :        0.001 s           0.001 s
  | Hartree multipole update                   :        0.001 s           0.001 s
  | Hartree multipole summation                :        0.006 s           0.006 s
  | Integration                                :        0.010 s           0.010 s
  | Solution of K.-S. eqns.                    :        0.002 s           0.003 s
  | Total energy evaluation                    :        0.000 s           0.001 s
------------------------------------------------------------

------------------------------------------------------------
          Begin self-consistency iteration #    4

  Date     :  20220120, Time     :  153324.942
------------------------------------------------------------
  Evaluating new KS density.
  Integration grid: deviation in total charge (<rho> - N_e) =   2.735744E-07
  | <rho_up-rho_dn> = N_up-N_dn =     -1.9601; <|rho_up-rho_dn|> =      1.9601
  Pulay mixing of updated and previous charge densities.

  Evaluating partitioned Hartree potential by multipole expansion.
  | Analytical far-field extrapolation by fixed multipoles:
  | Hartree multipole sum: apparent total charge =  -0.571796E-05
  Summing up the Hartree potential.
  Time summed over all CPUs for potential: real work        0.035 s, elapsed        0.043 s
  | RMS charge density error from multipole expansion :   0.564500E-03

  Integrating Hamiltonian matrix: batch-based integration.
  Time summed over all CPUs for integration: real work        0.070 s, elapsed        0.079 s

  Updating Kohn-Sham eigenvalues, eigenvectors, occupation numbers, and Fermi level.
  Solving generalized eigenproblem
  Solving real symmetric generalised eigenvalue problem by standard ScaLAPACK.
  Using Cholesky factor for transformation
  Using 1-stage real ELPA solver
  Solving real symmetric generalised eigenvalue problem by standard ScaLAPACK.
  Using Cholesky factor for transformation
  Using 1-stage real ELPA solver
  Determining occupation numbers for Kohn-Sham eigenstates.
  | Chemical potential (Fermi level) in eV                 : -.33739217E+01
  | Error in electron count due to remaining E_F inaccuracy: 0.00000000E+00
  | Maximum occupation number of highest empty state:  0.00E+00

  Current spin moment of the entire structure :
  | N = N_up - N_down :    0.00
  | S                 :    0.00
  | J                 :    1.00

  Highest occupied state (VBM) at     -5.94668920 eV
  | Occupation number:      1.00000000
  | Spin channel:        2

  Lowest unoccupied state (CBM) at     1.31321591 eV
  | Occupation number:      0.00000000
  | Spin channel:        1

  Overall HOMO-LUMO gap:      7.25990511 eV.

  Total energy components:
  | Sum of eigenvalues            :          -0.59524053 Ha         -16.19731886 eV
  | XC energy correction          :          -0.41307529 Ha         -11.24035068 eV
  | XC potential correction       :           0.53027555 Ha          14.42953179 eV
  | Free-atom electrostatic energy:          -0.41063853 Ha         -11.17404304 eV
  | Hartree energy correction     :           0.00141349 Ha           0.03846290 eV
  | van der Waals energy corr.    :           0.00000000 Ha           0.00000000 eV
  | Entropy correction            :           0.00000000 Ha           0.00000000 eV
  | ---------------------------
  | Total energy                  :          -0.88726532 Ha         -24.14371788 eV
  | Total energy, T -> 0          :          -0.88726532 Ha         -24.14371788 eV  <-- do not rely on this value for anything but (periodic) metals
  | Electronic free energy        :          -0.88726532 Ha         -24.14371788 eV

  Derived energy quantities:
  | Kinetic energy                :           0.88158772 Ha          23.98922252 eV
  | Electrostatic energy          :          -1.35577775 Ha         -36.89258972 eV
  | Energy correction for multipole
  | error in Hartree potential    :          -0.00013670 Ha          -0.00371977 eV
  | Sum of eigenvalues per atom                           :          -8.09865943 eV
  | Total energy (T->0) per atom                          :         -12.07185894 eV  <-- do not rely on this value for anything but (periodic) metals
  | Electronic free energy per atom                       :         -12.07185894 eV

  Self-consistency convergence accuracy:
  | Change of charge/spin density : 0.1284E+00 0.2618E+00
  | Change of sum of eigenvalues  : 0.4288E+01 eV
  | Change of total energy        : 0.3294E+01 eV

  End self-consistency iteration #     4       :  max(cpu_time)    wall_clock(cpu1)
  | Time for this iteration                    :        0.030 s           0.030 s
  | Charge density update                      :        0.008 s           0.008 s
  | Density mixing                             :        0.001 s           0.001 s
  | Hartree multipole update                   :        0.001 s           0.001 s
  | Hartree multipole summation                :        0.006 s           0.006 s
  | Integration                                :        0.010 s           0.010 s
  | Solution of K.-S. eqns.                    :        0.002 s           0.003 s
  | Total energy evaluation                    :        0.000 s           0.001 s
------------------------------------------------------------

------------------------------------------------------------
          Begin self-consistency iteration #    5

  Date     :  20220120, Time     :  153324.974
------------------------------------------------------------
  Evaluating new KS density.
  Integration grid: deviation in total charge (<rho> - N_e) =   2.710930E-07
  | <rho_up-rho_dn> = N_up-N_dn =     -1.9311; <|rho_up-rho_dn|> =      1.9311
  Pulay mixing of updated and previous charge densities.

  Evaluating partitioned Hartree potential by multipole expansion.
  | Analytical far-field extrapolation by fixed multipoles:
  | Hartree multipole sum: apparent total charge =  -0.582625E-05
  Summing up the Hartree potential.
  Time summed over all CPUs for potential: real work        0.033 s, elapsed        0.034 s
  | RMS charge density error from multipole expansion :   0.659049E-03

  Integrating Hamiltonian matrix: batch-based integration.
  Time summed over all CPUs for integration: real work        0.066 s, elapsed        0.069 s

  Updating Kohn-Sham eigenvalues, eigenvectors, occupation numbers, and Fermi level.
  Solving generalized eigenproblem
  Solving real symmetric generalised eigenvalue problem by standard ScaLAPACK.
  Using Cholesky factor for transformation
  Using 1-stage real ELPA solver
  Solving real symmetric generalised eigenvalue problem by standard ScaLAPACK.
  Using Cholesky factor for transformation
  Using 1-stage real ELPA solver
  Determining occupation numbers for Kohn-Sham eigenstates.
  | Chemical potential (Fermi level) in eV                 : -.35113326E+01
  | Error in electron count due to remaining E_F inaccuracy: 0.00000000E+00
  | Maximum occupation number of highest empty state:  0.00E+00

  Current spin moment of the entire structure :
  | N = N_up - N_down :    0.00
  | S                 :    0.00
  | J                 :    1.00

  Highest occupied state (VBM) at     -5.48386543 eV
  | Occupation number:      1.00000000
  | Spin channel:        2

  Lowest unoccupied state (CBM) at     1.88643885 eV
  | Occupation number:      0.00000000
  | Spin channel:        1

  Overall HOMO-LUMO gap:      7.37030428 eV.

  Total energy components:
  | Sum of eigenvalues            :          -0.60193524 Ha         -16.37949130 eV
  | XC energy correction          :          -0.39110430 Ha         -10.64248957 eV
  | XC potential correction       :           0.50499354 Ha          13.74157329 eV
  | Free-atom electrostatic energy:          -0.41063853 Ha         -11.17404304 eV
  | Hartree energy correction     :          -0.01069482 Ha          -0.29102097 eV
  | van der Waals energy corr.    :           0.00000000 Ha           0.00000000 eV
  | Entropy correction            :           0.00000000 Ha           0.00000000 eV
  | ---------------------------
  | Total energy                  :          -0.90937937 Ha         -24.74547159 eV
  | Total energy, T -> 0          :          -0.90937937 Ha         -24.74547159 eV  <-- do not rely on this value for anything but (periodic) metals
  | Electronic free energy        :          -0.90937937 Ha         -24.74547159 eV

  Derived energy quantities:
  | Kinetic energy                :           0.86098391 Ha          23.42856421 eV
  | Electrostatic energy          :          -1.37925897 Ha         -37.53154624 eV
  | Energy correction for multipole
  | error in Hartree potential    :          -0.00016840 Ha          -0.00458244 eV
  | Sum of eigenvalues per atom                           :          -8.18974565 eV
  | Total energy (T->0) per atom                          :         -12.37273580 eV  <-- do not rely on this value for anything but (periodic) metals
  | Electronic free energy per atom                       :         -12.37273580 eV

  Self-consistency convergence accuracy:
  | Change of charge/spin density : 0.7773E-01 0.2836E+00
  | Change of sum of eigenvalues  : -.1822E+00 eV
  | Change of total energy        : -.6018E+00 eV

  End self-consistency iteration #     5       :  max(cpu_time)    wall_clock(cpu1)
  | Time for this iteration                    :        0.026 s           0.025 s
  | Charge density update                      :        0.007 s           0.006 s
  | Density mixing                             :        0.002 s           0.002 s
  | Hartree multipole update                   :        0.001 s           0.001 s
  | Hartree multipole summation                :        0.004 s           0.005 s
  | Integration                                :        0.009 s           0.009 s
  | Solution of K.-S. eqns.                    :        0.001 s           0.001 s
  | Total energy evaluation                    :        0.000 s           0.000 s
------------------------------------------------------------

------------------------------------------------------------
          Begin self-consistency iteration #    6

  Date     :  20220120, Time     :  153325.002
------------------------------------------------------------
  Evaluating new KS density.
  Integration grid: deviation in total charge (<rho> - N_e) =   2.799747E-07
  | <rho_up-rho_dn> = N_up-N_dn =     -2.0219; <|rho_up-rho_dn|> =      2.0219
  Pulay mixing of updated and previous charge densities.

  Evaluating partitioned Hartree potential by multipole expansion.
  | Analytical far-field extrapolation by fixed multipoles:
  | Hartree multipole sum: apparent total charge =  -0.577635E-05
  Summing up the Hartree potential.
  Time summed over all CPUs for potential: real work        0.035 s, elapsed        0.036 s
  | RMS charge density error from multipole expansion :   0.108255E-02

  Integrating Hamiltonian matrix: batch-based integration.
  Time summed over all CPUs for integration: real work        0.070 s, elapsed        0.076 s

  Updating Kohn-Sham eigenvalues, eigenvectors, occupation numbers, and Fermi level.
  Solving generalized eigenproblem
  Solving real symmetric generalised eigenvalue problem by standard ScaLAPACK.
  Using Cholesky factor for transformation
  Using 1-stage real ELPA solver
  Solving real symmetric generalised eigenvalue problem by standard ScaLAPACK.
  Using Cholesky factor for transformation
  Using 1-stage real ELPA solver
  Determining occupation numbers for Kohn-Sham eigenstates.
  | Chemical potential (Fermi level) in eV                 : -.44112545E+01
  | Error in electron count due to remaining E_F inaccuracy: 0.00000000E+00
  | Maximum occupation number of highest empty state:  0.00E+00

  Current spin moment of the entire structure :
  | N = N_up - N_down :    0.00
  | S                 :    0.00
  | J                 :    1.00

  Highest occupied state (VBM) at     -6.80300657 eV
  | Occupation number:      1.00000000
  | Spin channel:        2

  Lowest unoccupied state (CBM) at     1.33322797 eV
  | Occupation number:      0.00000000
  | Spin channel:        1

  Overall HOMO-LUMO gap:      8.13623454 eV.

  Total energy components:
  | Sum of eigenvalues            :          -0.68317755 Ha         -18.59020697 eV
  | XC energy correction          :          -0.50910840 Ha         -13.85354446 eV
  | XC potential correction       :           0.65802326 Ha          17.90572388 eV
  | Free-atom electrostatic energy:          -0.41063853 Ha         -11.17404304 eV
  | Hartree energy correction     :          -0.02309288 Ha          -0.62838925 eV
  | van der Waals energy corr.    :           0.00000000 Ha           0.00000000 eV
  | Entropy correction            :           0.00000000 Ha           0.00000000 eV
  | ---------------------------
  | Total energy                  :          -0.96799411 Ha         -26.34045983 eV
  | Total energy, T -> 0          :          -0.96799411 Ha         -26.34045983 eV  <-- do not rely on this value for anything but (periodic) metals
  | Electronic free energy        :          -0.96799411 Ha         -26.34045983 eV

  Derived energy quantities:
  | Kinetic energy                :           0.94678169 Ha          25.76324050 eV
  | Electrostatic energy          :          -1.40566739 Ha         -38.25015587 eV
  | Energy correction for multipole
  | error in Hartree potential    :          -0.00020853 Ha          -0.00567449 eV
  | Sum of eigenvalues per atom                           :          -9.29510348 eV
  | Total energy (T->0) per atom                          :         -13.17022992 eV  <-- do not rely on this value for anything but (periodic) metals
  | Electronic free energy per atom                       :         -13.17022992 eV

  Self-consistency convergence accuracy:
  | Change of charge/spin density : 0.1262E+00 0.2779E+00
  | Change of sum of eigenvalues  : -.2211E+01 eV
  | Change of total energy        : -.1595E+01 eV

  End self-consistency iteration #     6       :  max(cpu_time)    wall_clock(cpu1)
  | Time for this iteration                    :        0.031 s           0.029 s
  | Charge density update                      :        0.009 s           0.007 s
  | Density mixing                             :        0.002 s           0.001 s
  | Hartree multipole update                   :        0.001 s           0.002 s
  | Hartree multipole summation                :        0.005 s           0.005 s
  | Integration                                :        0.010 s           0.009 s
  | Solution of K.-S. eqns.                    :        0.002 s           0.003 s
  | Total energy evaluation                    :        0.000 s           0.001 s
------------------------------------------------------------

------------------------------------------------------------
          Begin self-consistency iteration #    7

  Date     :  20220120, Time     :  153325.032
------------------------------------------------------------
  Evaluating new KS density.
  Integration grid: deviation in total charge (<rho> - N_e) =   2.787726E-07
  | <rho_up-rho_dn> = N_up-N_dn =     -2.0520; <|rho_up-rho_dn|> =      2.0520
  Pulay mixing of updated and previous charge densities.

  Evaluating partitioned Hartree potential by multipole expansion.
  | Analytical far-field extrapolation by fixed multipoles:
  | Hartree multipole sum: apparent total charge =  -0.575903E-05
  Summing up the Hartree potential.
  Time summed over all CPUs for potential: real work        0.035 s, elapsed        0.037 s
  | RMS charge density error from multipole expansion :   0.706086E-03

  Integrating Hamiltonian matrix: batch-based integration.
  Time summed over all CPUs for integration: real work        0.068 s, elapsed        0.074 s

  Updating Kohn-Sham eigenvalues, eigenvectors, occupation numbers, and Fermi level.
  Solving generalized eigenproblem
  Solving real symmetric generalised eigenvalue problem by standard ScaLAPACK.
  Using Cholesky factor for transformation
  Using 1-stage real ELPA solver
  Solving real symmetric generalised eigenvalue problem by standard ScaLAPACK.
  Using Cholesky factor for transformation
  Using 1-stage real ELPA solver
  Determining occupation numbers for Kohn-Sham eigenstates.
  | Chemical potential (Fermi level) in eV                 : -.41345600E+01
  | Error in electron count due to remaining E_F inaccuracy: 0.00000000E+00
  | Maximum occupation number of highest empty state:  0.00E+00

  Current spin moment of the entire structure :
  | N = N_up - N_down :    0.00
  | S                 :    0.00
  | J                 :    1.00

  Highest occupied state (VBM) at     -6.48456343 eV
  | Occupation number:      1.00000000
  | Spin channel:        2

  Lowest unoccupied state (CBM) at     2.22239433 eV
  | Occupation number:      0.00000000
  | Spin channel:        1

  Overall HOMO-LUMO gap:      8.70695776 eV.

  Total energy components:
  | Sum of eigenvalues            :          -0.65901563 Ha         -17.93272767 eV
  | XC energy correction          :          -0.42572796 Ha         -11.58464723 eV
  | XC potential correction       :           0.54978525 Ha          14.96041779 eV
  | Free-atom electrostatic energy:          -0.41063853 Ha         -11.17404304 eV
  | Hartree energy correction     :          -0.01785868 Ha          -0.48595938 eV
  | van der Waals energy corr.    :           0.00000000 Ha           0.00000000 eV
  | Entropy correction            :           0.00000000 Ha           0.00000000 eV
  | ---------------------------
  | Total energy                  :          -0.96345555 Ha         -26.21695953 eV
  | Total energy, T -> 0          :          -0.96345555 Ha         -26.21695953 eV  <-- do not rely on this value for anything but (periodic) metals
  | Electronic free energy        :          -0.96345555 Ha         -26.21695953 eV

  Derived energy quantities:
  | Kinetic energy                :           0.85019787 Ha          23.13506115 eV
  | Electrostatic energy          :          -1.38792546 Ha         -37.76737344 eV
  | Energy correction for multipole
  | error in Hartree potential    :          -0.00017016 Ha          -0.00463031 eV
  | Sum of eigenvalues per atom                           :          -8.96636383 eV
  | Total energy (T->0) per atom                          :         -13.10847976 eV  <-- do not rely on this value for anything but (periodic) metals
  | Electronic free energy per atom                       :         -13.10847976 eV

  Self-consistency convergence accuracy:
  | Change of charge/spin density : 0.1362E+00 0.2821E+00
  | Change of sum of eigenvalues  : 0.6575E+00 eV
  | Change of total energy        : 0.1235E+00 eV

  End self-consistency iteration #     7       :  max(cpu_time)    wall_clock(cpu1)
  | Time for this iteration                    :        0.028 s           0.029 s
  | Charge density update                      :        0.007 s           0.007 s
  | Density mixing                             :        0.002 s           0.002 s
  | Hartree multipole update                   :        0.001 s           0.002 s
  | Hartree multipole summation                :        0.005 s           0.005 s
  | Integration                                :        0.009 s           0.009 s
  | Solution of K.-S. eqns.                    :        0.002 s           0.002 s
  | Total energy evaluation                    :        0.000 s           0.000 s
------------------------------------------------------------

------------------------------------------------------------
          Begin self-consistency iteration #    8

  Date     :  20220120, Time     :  153325.063
------------------------------------------------------------
  Evaluating new KS density.
  Integration grid: deviation in total charge (<rho> - N_e) =   2.760221E-07
  | <rho_up-rho_dn> = N_up-N_dn =     -2.0140; <|rho_up-rho_dn|> =      2.0140
  Pulay mixing of updated and previous charge densities.

  Evaluating partitioned Hartree potential by multipole expansion.
  | Analytical far-field extrapolation by fixed multipoles:
  | Hartree multipole sum: apparent total charge =  -0.576248E-05
  Summing up the Hartree potential.
  Time summed over all CPUs for potential: real work        0.035 s, elapsed        0.036 s
  | RMS charge density error from multipole expansion :   0.833507E-03

  Integrating Hamiltonian matrix: batch-based integration.
  Time summed over all CPUs for integration: real work        0.068 s, elapsed        0.077 s

  Updating Kohn-Sham eigenvalues, eigenvectors, occupation numbers, and Fermi level.
  Solving generalized eigenproblem
  Solving real symmetric generalised eigenvalue problem by standard ScaLAPACK.
  Using Cholesky factor for transformation
  Using 1-stage real ELPA solver
  Solving real symmetric generalised eigenvalue problem by standard ScaLAPACK.
  Using Cholesky factor for transformation
  Using 1-stage real ELPA solver
  Determining occupation numbers for Kohn-Sham eigenstates.
  | Chemical potential (Fermi level) in eV                 : -.19425021E+01
  | Error in electron count due to remaining E_F inaccuracy: 0.00000000E+00
  | Maximum occupation number of highest empty state:  0.00E+00

  Current spin moment of the entire structure :
  | N = N_up - N_down :    0.00
  | S                 :    0.00
  | J                 :    1.00

  Highest occupied state (VBM) at     -4.95994030 eV
  | Occupation number:      1.00000000
  | Spin channel:        2

  Lowest unoccupied state (CBM) at     2.14782735 eV
  | Occupation number:      0.00000000
  | Spin channel:        1

  Overall HOMO-LUMO gap:      7.10776765 eV.

  Total energy components:
  | Sum of eigenvalues            :          -0.51991041 Ha         -14.14748219 eV
  | XC energy correction          :          -0.36092621 Ha          -9.82130188 eV
  | XC potential correction       :           0.47031181 Ha          12.79783554 eV
  | Free-atom electrostatic energy:          -0.41063853 Ha         -11.17404304 eV
  | Hartree energy correction     :          -0.02418985 Ha          -0.65823921 eV
  | van der Waals energy corr.    :           0.00000000 Ha           0.00000000 eV
  | Entropy correction            :           0.00000000 Ha           0.00000000 eV
  | ---------------------------
  | Total energy                  :          -0.84535319 Ha         -23.00323078 eV
  | Total energy, T -> 0          :          -0.84535319 Ha         -23.00323078 eV  <-- do not rely on this value for anything but (periodic) metals
  | Electronic free energy        :          -0.84535319 Ha         -23.00323078 eV

  Derived energy quantities:
  | Kinetic energy                :           0.93327057 Ha          25.39558441 eV
  | Electrostatic energy          :          -1.41769756 Ha         -38.57751331 eV
  | Energy correction for multipole
  | error in Hartree potential    :          -0.00020916 Ha          -0.00569163 eV
  | Sum of eigenvalues per atom                           :          -7.07374109 eV
  | Total energy (T->0) per atom                          :         -11.50161539 eV  <-- do not rely on this value for anything but (periodic) metals
  | Electronic free energy per atom                       :         -11.50161539 eV

  Self-consistency convergence accuracy:
  | Change of charge/spin density : 0.1454E+00 0.2826E+00
  | Change of sum of eigenvalues  : 0.3785E+01 eV
  | Change of total energy        : 0.3214E+01 eV

  End self-consistency iteration #     8       :  max(cpu_time)    wall_clock(cpu1)
  | Time for this iteration                    :        0.028 s           0.027 s
  | Charge density update                      :        0.007 s           0.006 s
  | Density mixing                             :        0.002 s           0.002 s
  | Hartree multipole update                   :        0.001 s           0.002 s
  | Hartree multipole summation                :        0.005 s           0.004 s
  | Integration                                :        0.010 s           0.009 s
  | Solution of K.-S. eqns.                    :        0.001 s           0.002 s
  | Total energy evaluation                    :        0.000 s           0.001 s
------------------------------------------------------------

------------------------------------------------------------
          Begin self-consistency iteration #    9

  Date     :  20220120, Time     :  153325.091
------------------------------------------------------------
  Evaluating new KS density.
  Integration grid: deviation in total charge (<rho> - N_e) =   2.848223E-07
  | <rho_up-rho_dn> = N_up-N_dn =     -2.0702; <|rho_up-rho_dn|> =      2.0702
  Pulay mixing of updated and previous charge densities.

  Evaluating partitioned Hartree potential by multipole expansion.
  | Analytical far-field extrapolation by fixed multipoles:
  | Hartree multipole sum: apparent total charge =  -0.576856E-05
  Summing up the Hartree potential.
  Time summed over all CPUs for potential: real work        0.034 s, elapsed        0.035 s
  | RMS charge density error from multipole expansion :   0.710320E-03

  Integrating Hamiltonian matrix: batch-based integration.
  Time summed over all CPUs for integration: real work        0.067 s, elapsed        0.071 s

  Updating Kohn-Sham eigenvalues, eigenvectors, occupation numbers, and Fermi level.
  Solving generalized eigenproblem
  Solving real symmetric generalised eigenvalue problem by standard ScaLAPACK.
  Using Cholesky factor for transformation
  Using 1-stage real ELPA solver
  Solving real symmetric generalised eigenvalue problem by standard ScaLAPACK.
  Using Cholesky factor for transformation
  Using 1-stage real ELPA solver
  Determining occupation numbers for Kohn-Sham eigenstates.
  | Chemical potential (Fermi level) in eV                 : -.45091454E+01
  | Error in electron count due to remaining E_F inaccuracy: 0.00000000E+00
  | Maximum occupation number of highest empty state:  0.00E+00

  Current spin moment of the entire structure :
  | N = N_up - N_down :    0.00
  | S                 :    0.00
  | J                 :    1.00

  Highest occupied state (VBM) at     -7.49665789 eV
  | Occupation number:      1.00000000
  | Spin channel:        2

  Lowest unoccupied state (CBM) at     1.10510871 eV
  | Occupation number:      0.00000000
  | Spin channel:        1

  Overall HOMO-LUMO gap:      8.60176660 eV.

  Total energy components:
  | Sum of eigenvalues            :          -0.70403592 Ha         -19.15779206 eV
  | XC energy correction          :          -0.50356721 Ha         -13.70276088 eV
  | XC potential correction       :           0.64936778 Ha          17.67019628 eV
  | Free-atom electrostatic energy:          -0.41063853 Ha         -11.17404304 eV
  | Hartree energy correction     :          -0.01107697 Ha          -0.30141972 eV
  | van der Waals energy corr.    :           0.00000000 Ha           0.00000000 eV
  | Entropy correction            :           0.00000000 Ha           0.00000000 eV
  | ---------------------------
  | Total energy                  :          -0.97995085 Ha         -26.66581942 eV
  | Total energy, T -> 0          :          -0.97995085 Ha         -26.66581942 eV  <-- do not rely on this value for anything but (periodic) metals
  | Electronic free energy        :          -0.97995085 Ha         -26.66581942 eV

  Derived energy quantities:
  | Kinetic energy                :           0.86047369 Ha          23.41468033 eV
  | Electrostatic energy          :          -1.33685733 Ha         -36.37773887 eV
  | Energy correction for multipole
  | error in Hartree potential    :          -0.00010815 Ha          -0.00294301 eV
  | Sum of eigenvalues per atom                           :          -9.57889603 eV
  | Total energy (T->0) per atom                          :         -13.33290971 eV  <-- do not rely on this value for anything but (periodic) metals
  | Electronic free energy per atom                       :         -13.33290971 eV

  Self-consistency convergence accuracy:
  | Change of charge/spin density : 0.1303E+00 0.2766E+00
  | Change of sum of eigenvalues  : -.5010E+01 eV
  | Change of total energy        : -.3663E+01 eV

  End self-consistency iteration #     9       :  max(cpu_time)    wall_clock(cpu1)
  | Time for this iteration                    :        0.027 s           0.026 s
  | Charge density update                      :        0.007 s           0.005 s
  | Density mixing                             :        0.002 s           0.002 s
  | Hartree multipole update                   :        0.001 s           0.002 s
  | Hartree multipole summation                :        0.005 s           0.005 s
  | Integration                                :        0.009 s           0.009 s
  | Solution of K.-S. eqns.                    :        0.002 s           0.001 s
  | Total energy evaluation                    :        0.000 s           0.001 s
------------------------------------------------------------

------------------------------------------------------------
          Begin self-consistency iteration #   10

  Date     :  20220120, Time     :  153325.120
------------------------------------------------------------
  Evaluating new KS density.
  Integration grid: deviation in total charge (<rho> - N_e) =   2.608315E-07
  | <rho_up-rho_dn> = N_up-N_dn =     -1.8984; <|rho_up-rho_dn|> =      1.8984
  Pulay mixing of updated and previous charge densities.

  Evaluating partitioned Hartree potential by multipole expansion.
  | Analytical far-field extrapolation by fixed multipoles:
  | Hartree multipole sum: apparent total charge =  -0.529425E-05
  Summing up the Hartree potential.
  Time summed over all CPUs for potential: real work        0.034 s, elapsed        0.036 s
  | RMS charge density error from multipole expansion :   0.417332E-02

  Integrating Hamiltonian matrix: batch-based integration.
  Time summed over all CPUs for integration: real work        0.070 s, elapsed        0.074 s

  Updating Kohn-Sham eigenvalues, eigenvectors, occupation numbers, and Fermi level.
  Solving generalized eigenproblem
  Solving real symmetric generalised eigenvalue problem by standard ScaLAPACK.
  Using Cholesky factor for transformation
  Using 1-stage real ELPA solver
  Solving real symmetric generalised eigenvalue problem by standard ScaLAPACK.
  Using Cholesky factor for transformation
  Using 1-stage real ELPA solver
  Determining occupation numbers for Kohn-Sham eigenstates.
  | Chemical potential (Fermi level) in eV                 : -.99996607E+01
  | Error in electron count due to remaining E_F inaccuracy: 0.00000000E+00
  | Maximum occupation number of highest empty state:  0.00E+00

  Current spin moment of the entire structure :
  | N = N_up - N_down :    0.00
  | S                 :    0.00
  | J                 :    1.00

  Highest occupied state (VBM) at    -12.15273807 eV
  | Occupation number:      1.00000000
  | Spin channel:        1

  Lowest unoccupied state (CBM) at    -0.60760471 eV
  | Occupation number:      0.00000000
  | Spin channel:        1

  Overall HOMO-LUMO gap:     11.54513335 eV.

  Total energy components:
  | Sum of eigenvalues            :          -0.89493123 Ha         -24.35231784 eV
  | XC energy correction          :          -0.56774203 Ha         -15.44904668 eV
  | XC potential correction       :           0.72960951 Ha          19.85368500 eV
  | Free-atom electrostatic energy:          -0.41063853 Ha         -11.17404304 eV
  | Hartree energy correction     :           0.07477075 Ha           2.03461568 eV
  | van der Waals energy corr.    :           0.00000000 Ha           0.00000000 eV
  | Entropy correction            :           0.00000000 Ha           0.00000000 eV
  | ---------------------------
  | Total energy                  :          -1.06893153 Ha         -29.08710688 eV
  | Total energy, T -> 0          :          -1.06893153 Ha         -29.08710688 eV  <-- do not rely on this value for anything but (periodic) metals
  | Electronic free energy        :          -1.06893153 Ha         -29.08710688 eV

  Derived energy quantities:
  | Kinetic energy                :          -0.07896936 Ha          -2.14886575 eV
  | Electrostatic energy          :          -0.42222014 Ha         -11.48919444 eV
  | Energy correction for multipole
  | error in Hartree potential    :           0.00111761 Ha           0.03041168 eV
  | Sum of eigenvalues per atom                           :         -12.17615892 eV
  | Total energy (T->0) per atom                          :         -14.54355344 eV  <-- do not rely on this value for anything but (periodic) metals
  | Electronic free energy per atom                       :         -14.54355344 eV

  Self-consistency convergence accuracy:
  | Change of charge/spin density : 0.1270E+00 0.2658E+00
  | Change of sum of eigenvalues  : -.5195E+01 eV
  | Change of total energy        : -.2421E+01 eV

  End self-consistency iteration #    10       :  max(cpu_time)    wall_clock(cpu1)
  | Time for this iteration                    :        0.027 s           0.027 s
  | Charge density update                      :        0.007 s           0.007 s
  | Density mixing                             :        0.002 s           0.002 s
  | Hartree multipole update                   :        0.001 s           0.001 s
  | Hartree multipole summation                :        0.005 s           0.005 s
  | Integration                                :        0.009 s           0.010 s
  | Solution of K.-S. eqns.                    :        0.001 s           0.001 s
  | Total energy evaluation                    :        0.000 s           0.000 s
------------------------------------------------------------

------------------------------------------------------------
          Begin self-consistency iteration #   11

  Date     :  20220120, Time     :  153325.150
------------------------------------------------------------
  Evaluating new KS density.
  Integration grid: deviation in total charge (<rho> - N_e) =   3.041284E-08
  | <rho_up-rho_dn> = N_up-N_dn =     -0.0371; <|rho_up-rho_dn|> =      0.4523
  Pulay mixing of updated and previous charge densities.

  Evaluating partitioned Hartree potential by multipole expansion.
  | Analytical far-field extrapolation by fixed multipoles:
  | Hartree multipole sum: apparent total charge =  -0.535542E-05
  Summing up the Hartree potential.
  Time summed over all CPUs for potential: real work        0.041 s, elapsed        0.047 s
  | RMS charge density error from multipole expansion :   0.510525E-02

  Integrating Hamiltonian matrix: batch-based integration.
  Time summed over all CPUs for integration: real work        0.074 s, elapsed        0.079 s

  Updating Kohn-Sham eigenvalues, eigenvectors, occupation numbers, and Fermi level.
  Solving generalized eigenproblem
  Solving real symmetric generalised eigenvalue problem by standard ScaLAPACK.
  Using Cholesky factor for transformation
  Using 1-stage real ELPA solver
  Solving real symmetric generalised eigenvalue problem by standard ScaLAPACK.
  Using Cholesky factor for transformation
  Using 1-stage real ELPA solver
  Determining occupation numbers for Kohn-Sham eigenstates.
  | Chemical potential (Fermi level) in eV                 : -.10806390E+02
  | Error in electron count due to remaining E_F inaccuracy: 0.00000000E+00
  | Maximum occupation number of highest empty state:  0.00E+00

  Current spin moment of the entire structure :
  | N = N_up - N_down :    0.00
  | S                 :    0.00
  | J                 :    1.00

  Highest occupied state (VBM) at    -12.68320167 eV
  | Occupation number:      1.00000000
  | Spin channel:        2

  Lowest unoccupied state (CBM) at    -1.12929964 eV
  | Occupation number:      0.00000000
  | Spin channel:        1

  Overall HOMO-LUMO gap:     11.55390203 eV.

  Total energy components:
  | Sum of eigenvalues            :          -0.94388219 Ha         -25.68434117 eV
  | XC energy correction          :          -0.56387100 Ha         -15.34371061 eV
  | XC potential correction       :           0.72516392 Ha          19.73271417 eV
  | Free-atom electrostatic energy:          -0.41063853 Ha         -11.17404304 eV
  | Hartree energy correction     :           0.10706234 Ha           2.91331438 eV
  | van der Waals energy corr.    :           0.00000000 Ha           0.00000000 eV
  | Entropy correction            :           0.00000000 Ha           0.00000000 eV
  | ---------------------------
  | Total energy                  :          -1.08616547 Ha         -29.55606626 eV
  | Total energy, T -> 0          :          -1.08616547 Ha         -29.55606626 eV  <-- do not rely on this value for anything but (periodic) metals
  | Electronic free energy        :          -1.08616547 Ha         -29.55606626 eV

  Derived energy quantities:
  | Kinetic energy                :          -0.23954285 Ha          -6.51829263 eV
  | Electrostatic energy          :          -0.28275162 Ha          -7.69406302 eV
  | Energy correction for multipole
  | error in Hartree potential    :           0.00125333 Ha           0.03410493 eV
  | Sum of eigenvalues per atom                           :         -12.84217058 eV
  | Total energy (T->0) per atom                          :         -14.77803313 eV  <-- do not rely on this value for anything but (periodic) metals
  | Electronic free energy per atom                       :         -14.77803313 eV

[...]
  | Change of sum of eigenvalues  : -.2613E-04 eV
  | Change of total energy        : -.9194E-09 eV

  End self-consistency iteration #    29       :  max(cpu_time)    wall_clock(cpu1)
  | Time for this iteration                    :        0.027 s           0.026 s
  | Charge density update                      :        0.006 s           0.006 s
  | Density mixing                             :        0.002 s           0.002 s
  | Hartree multipole update                   :        0.001 s           0.001 s
  | Hartree multipole summation                :        0.005 s           0.005 s
  | Integration                                :        0.010 s           0.010 s
  | Solution of K.-S. eqns.                    :        0.001 s           0.001 s
  | Total energy evaluation                    :        0.000 s           0.000 s
------------------------------------------------------------

------------------------------------------------------------
          Begin self-consistency iteration #   30

  Date     :  20220120, Time     :  153325.730
------------------------------------------------------------
  Evaluating new KS density.
  Integration grid: deviation in total charge (<rho> - N_e) =  -5.759837E-13
  | <rho_up-rho_dn> = N_up-N_dn =      0.0000; <|rho_up-rho_dn|> =      0.0000
  Pulay mixing of updated and previous charge densities.

  Evaluating partitioned Hartree potential by multipole expansion.
  | Analytical far-field extrapolation by fixed multipoles:
  | Hartree multipole sum: apparent total charge =  -0.421680E-08
  Summing up the Hartree potential.
  Time summed over all CPUs for potential: real work        0.033 s, elapsed        0.034 s
  | RMS charge density error from multipole expansion :   0.978605E-03

  Integrating Hamiltonian matrix: batch-based integration.
  Time summed over all CPUs for integration: real work        0.074 s, elapsed        0.078 s

  Updating Kohn-Sham eigenvalues, eigenvectors, occupation numbers, and Fermi level.
  Solving generalized eigenproblem
  Solving real symmetric generalised eigenvalue problem by standard ScaLAPACK.
  Using Cholesky factor for transformation
  Using 1-stage real ELPA solver
  Solving real symmetric generalised eigenvalue problem by standard ScaLAPACK.
  Using Cholesky factor for transformation
  Using 1-stage real ELPA solver
  Determining occupation numbers for Kohn-Sham eigenstates.
  | Chemical potential (Fermi level) in eV                 : -.83135489E+01
  | Error in electron count due to remaining E_F inaccuracy: 0.00000000E+00
  | Maximum occupation number of highest empty state:  0.00E+00

  Current spin moment of the entire structure :
  | N = N_up - N_down :    0.00
  | S                 :    0.00
  | J                 :    1.00

  Highest occupied state (VBM) at     -9.89282097 eV
  | Occupation number:      1.00000000
  | Spin channel:        2

  Lowest unoccupied state (CBM) at     0.07530030 eV
  | Occupation number:      0.00000000
  | Spin channel:        1

  Overall HOMO-LUMO gap:      9.96812127 eV.

  Total energy components:
  | Sum of eigenvalues            :          -0.72710899 Ha         -19.78564237 eV
  | XC energy correction          :          -0.65861603 Ha         -17.92185414 eV
  | XC potential correction       :           0.84549192 Ha          23.00700571 eV
  | Free-atom electrostatic energy:          -0.41063853 Ha         -11.17404304 eV
  | Hartree energy correction     :          -0.21070712 Ha          -5.73363256 eV
  | van der Waals energy corr.    :           0.00000000 Ha           0.00000000 eV
  | Entropy correction            :           0.00000000 Ha           0.00000000 eV
  | ---------------------------
  | Total energy                  :          -1.16157877 Ha         -31.60816641 eV
  | Total energy, T -> 0          :          -1.16157877 Ha         -31.60816641 eV  <-- do not rely on this value for anything but (periodic) metals
  | Electronic free energy        :          -1.16157877 Ha         -31.60816641 eV

  Derived energy quantities:
  | Kinetic energy                :           1.04834448 Ha          28.52690467 eV
  | Electrostatic energy          :          -1.55130721 Ha         -42.21321693 eV
  | Energy correction for multipole
  | error in Hartree potential    :          -0.00009779 Ha          -0.00266111 eV
  | Sum of eigenvalues per atom                           :          -9.89282119 eV
  | Total energy (T->0) per atom                          :         -15.80408320 eV  <-- do not rely on this value for anything but (periodic) metals
  | Electronic free energy per atom                       :         -15.80408320 eV

  Self-consistency convergence accuracy:
  | Change of charge/spin density : 0.4183E-06 0.6136E-06
  | Change of sum of eigenvalues  : -.1526E-04 eV
  | Change of total energy        : -.3667E-09 eV

  End self-consistency iteration #    30       :  max(cpu_time)    wall_clock(cpu1)
  | Time for this iteration                    :        0.027 s           0.026 s
  | Charge density update                      :        0.007 s           0.006 s
  | Density mixing                             :        0.002 s           0.001 s
  | Hartree multipole update                   :        0.001 s           0.002 s
  | Hartree multipole summation                :        0.005 s           0.004 s
  | Integration                                :        0.010 s           0.010 s
  | Solution of K.-S. eqns.                    :        0.001 s           0.002 s
  | Total energy evaluation                    :        0.000 s           0.001 s
------------------------------------------------------------

------------------------------------------------------------
          Begin self-consistency iteration #   31

  Date     :  20220120, Time     :  153325.760
------------------------------------------------------------
  Evaluating new KS density.
  Integration grid: deviation in total charge (<rho> - N_e) =  -1.902922E-13
  | <rho_up-rho_dn> = N_up-N_dn =     -0.0000; <|rho_up-rho_dn|> =      0.0000
  Pulay mixing of updated and previous charge densities.

  Evaluating partitioned Hartree potential by multipole expansion.
  | Analytical far-field extrapolation by fixed multipoles:
  | Hartree multipole sum: apparent total charge =  -0.421850E-08
  Summing up the Hartree potential.
  Time summed over all CPUs for potential: real work        0.033 s, elapsed        0.034 s
  | RMS charge density error from multipole expansion :   0.978604E-03

  Integrating Hamiltonian matrix: batch-based integration.
  Time summed over all CPUs for integration: real work        0.074 s, elapsed        0.078 s

  Updating Kohn-Sham eigenvalues, eigenvectors, occupation numbers, and Fermi level.
  Solving generalized eigenproblem
  Solving real symmetric generalised eigenvalue problem by standard ScaLAPACK.
  Using Cholesky factor for transformation
  Using 1-stage real ELPA solver
  Solving real symmetric generalised eigenvalue problem by standard ScaLAPACK.
  Using Cholesky factor for transformation
  Using 1-stage real ELPA solver
  Determining occupation numbers for Kohn-Sham eigenstates.
  | Chemical potential (Fermi level) in eV                 : -.83134431E+01
  | Error in electron count due to remaining E_F inaccuracy: 0.00000000E+00
  | Maximum occupation number of highest empty state:  0.00E+00

  Current spin moment of the entire structure :
  | N = N_up - N_down :    0.00
  | S                 :    0.00
  | J                 :    1.00

  Highest occupied state (VBM) at     -9.89282338 eV
  | Occupation number:      1.00000000
  | Spin channel:        2

  Lowest unoccupied state (CBM) at     0.07529808 eV
  | Occupation number:      0.00000000
  | Spin channel:        1

  Overall HOMO-LUMO gap:      9.96812146 eV.

  Total energy components:
  | Sum of eigenvalues            :          -0.72710917 Ha         -19.78564730 eV
  | XC energy correction          :          -0.65861595 Ha         -17.92185193 eV
  | XC potential correction       :           0.84549181 Ha          23.00700271 eV
  | Free-atom electrostatic energy:          -0.41063853 Ha         -11.17404304 eV
  | Hartree energy correction     :          -0.21070691 Ha          -5.73362683 eV
  | van der Waals energy corr.    :           0.00000000 Ha           0.00000000 eV
  | Entropy correction            :           0.00000000 Ha           0.00000000 eV
  | ---------------------------
  | Total energy                  :          -1.16157877 Ha         -31.60816640 eV
  | Total energy, T -> 0          :          -1.16157877 Ha         -31.60816640 eV  <-- do not rely on this value for anything but (periodic) metals
  | Electronic free energy        :          -1.16157877 Ha         -31.60816640 eV

  Derived energy quantities:
  | Kinetic energy                :           1.04834448 Ha          28.52690478 eV
  | Electrostatic energy          :          -1.55130729 Ha         -42.21321925 eV
  | Energy correction for multipole
  | error in Hartree potential    :          -0.00009779 Ha          -0.00266113 eV
  | Sum of eigenvalues per atom                           :          -9.89282365 eV
  | Total energy (T->0) per atom                          :         -15.80408320 eV  <-- do not rely on this value for anything but (periodic) metals
  | Electronic free energy per atom                       :         -15.80408320 eV

  Self-consistency convergence accuracy:
  | Change of charge/spin density : 0.2194E-06 0.7989E-07
  | Change of sum of eigenvalues  : -.4932E-05 eV
  | Change of total energy        : 0.1270E-09 eV

  Writing Kohn-Sham eigenvalues.

  Spin-up eigenvalues:

  State    Occupation    Eigenvalue [Ha]    Eigenvalue [eV]
      1       1.00000          -0.363555           -9.89282
      2       0.00000           0.002767            0.07530
      3       0.00000           0.046586            1.26768
      4       0.00000           0.146764            3.99364
      5       0.00000           0.310632            8.45272
      6       0.00000           0.310632            8.45272
      7       0.00000           0.374932           10.20241
      8       0.00000           0.524192           14.26399
      9       0.00000           0.715440           19.46811
     10       0.00000           0.738928           20.10724
     11       0.00000           0.738928           20.10724

  Spin-down eigenvalues:

  State    Occupation    Eigenvalue [Ha]    Eigenvalue [eV]
      1       1.00000          -0.363555           -9.89282
      2       0.00000           0.002767            0.07530
      3       0.00000           0.046586            1.26768
      4       0.00000           0.146764            3.99365
      5       0.00000           0.310632            8.45272
      6       0.00000           0.310632            8.45272
      7       0.00000           0.374932           10.20241
      8       0.00000           0.524192           14.26399
      9       0.00000           0.715440           19.46811
     10       0.00000           0.738928           20.10724
     11       0.00000           0.738928           20.10724

  Current spin moment of the entire structure :
  | N = N_up - N_down :    0.00
  | S                 :    0.00
  | J                 :    1.00

  Highest occupied state (VBM) at     -9.89282338 eV
  | Occupation number:      1.00000000
  | Spin channel:        2

  Lowest unoccupied state (CBM) at     0.07529808 eV
  | Occupation number:      0.00000000
  | Spin channel:        1

  Overall HOMO-LUMO gap:      9.96812146 eV.

  Self-consistency cycle converged.

  End self-consistency iteration #    31       :  max(cpu_time)    wall_clock(cpu1)
  | Time for this iteration                    :        0.027 s           0.028 s
  | Charge density update                      :        0.007 s           0.006 s
  | Density mixing                             :        0.002 s           0.002 s
  | Hartree multipole update                   :        0.001 s           0.001 s
  | Hartree multipole summation                :        0.005 s           0.005 s
  | Integration                                :        0.010 s           0.010 s
  | Solution of K.-S. eqns.                    :        0.001 s           0.002 s
  | Total energy evaluation                    :        0.000 s           0.001 s
------------------------------------------------------------
  Obtaining max. number of non-zero basis functions in each batch .
  Evaluating KS electron density on previously omitted grid points.
  Evaluating non-empirical van der Waals correction (Tkatchenko/Scheffler 2009).
  Performing Hirshfeld analysis of fragment charges and moments.
  ----------------------------------------------------------------------
  | Atom     1: H
  |   Hirshfeld charge        :     -0.00000060
  |   Free atom volume        :     10.31539447
  |   Hirshfeld volume        :      5.85971790
  |   Hirshfeld spin moment   :      0.00000004
  |   Hirshfeld dipole vector :     -0.00000000      -0.00000000      -0.08624080
  |   Hirshfeld dipole moment :      0.08624080
  |   Hirshfeld second moments:      0.10418664       0.00000000       0.00000000
  |                                  0.00000000       0.10418664       0.00000000
  |                                  0.00000000       0.00000000       0.10566278
  ----------------------------------------------------------------------
  | Atom     2: H
  |   Hirshfeld charge        :     -0.00000060
  |   Free atom volume        :     10.31539447
  |   Hirshfeld volume        :      5.85971790
  |   Hirshfeld spin moment   :      0.00000004
  |   Hirshfeld dipole vector :     -0.00000000      -0.00000000       0.08624080
  |   Hirshfeld dipole moment :      0.08624080
  |   Hirshfeld second moments:      0.10418664      -0.00000000      -0.00000000
  |                                 -0.00000000       0.10418664       0.00000000
  |                                 -0.00000000       0.00000000       0.10566278
  ----------------------------------------------------------------------


  Total energy components:
  | Sum of eigenvalues            :          -0.72710917 Ha         -19.78564730 eV
  | XC energy correction          :          -0.65861595 Ha         -17.92185193 eV
  | XC potential correction       :           0.84549181 Ha          23.00700271 eV
  | Free-atom electrostatic energy:          -0.41063853 Ha         -11.17404304 eV
  | Hartree energy correction     :          -0.21070691 Ha          -5.73362683 eV
  | van der Waals energy corr.    :          -0.00000020 Ha          -0.00000532 eV
  | Entropy correction            :           0.00000000 Ha           0.00000000 eV
  | ---------------------------
  | Total energy                  :          -1.16157896 Ha         -31.60817173 eV
  | Total energy, T -> 0          :          -1.16157896 Ha         -31.60817173 eV  <-- do not rely on this value for anything but (periodic) metals
  | Electronic free energy        :          -1.16157896 Ha         -31.60817173 eV

  Derived energy quantities:
  | Kinetic energy                :           1.04834448 Ha          28.52690478 eV
  | Electrostatic energy          :          -1.55130729 Ha         -42.21321925 eV
  | Energy correction for multipole
  | error in Hartree potential    :          -0.00009779 Ha          -0.00266113 eV
  | Sum of eigenvalues per atom                           :          -9.89282365 eV
  | Total energy (T->0) per atom                          :         -15.80408586 eV  <-- do not rely on this value for anything but (periodic) metals
  | Electronic free energy per atom                       :         -15.80408586 eV
  Timings for VdW correction (Tkatchenko-Scheffler 2009 or later):
  | CPU time:        0.002 s, Wall clock time:        0.002 s.

  Energy and forces in a compact form:
  | Total energy uncorrected      :         -0.316081717285715E+02 eV
  | Total energy corrected        :         -0.316081717285715E+02 eV  <-- do not rely on this value for anything but (periodic) metals
  | Electronic free energy        :         -0.316081717285715E+02 eV

  ------------------------------------ 
  Start decomposition of the XC Energy 
  ------------------------------------ 
  Hartree-Fock part   :          0.000000000 Ha              0.000000000 eV
  ------------------------------------ 
  X Energy            :         -0.616291387 Ha            -16.770141895 eV
  C Energy GGA        :         -0.042324566 Ha             -1.151710040 eV
  Total XC Energy     :         -0.658615953 Ha            -17.921851935 eV
  LDA X and C from self-consistent density 
  X Energy LDA        :         -0.538223799 Ha            -14.645814747 eV
  C Energy LDA        :         -0.092500967 Ha             -2.517079368 eV
  ------------------------------------ 
  End decomposition of the XC Energy 
  ------------------------------------ 

------------------------------------------------------------------------------
  Final output of selected total energy values:

  The following output summarizes some interesting total energy values
  at the end of a run (AFTER all relaxation, molecular dynamics, etc.).

  | Total energy of the DFT / Hartree-Fock s.c.f. calculation      :            -31.608171729 eV
  | Final zero-broadening corrected energy (caution - metals only) :            -31.608171729 eV
  | For reference only, the value of 1 Hartree used in FHI-aims is :             27.211384500 eV

  Before relying on these values, please be sure to understand exactly which
  total energy value is referred to by a given number. Different objects may
  all carry the same name 'total energy'. Definitions:

  Total energy of the DFT / Hartree-Fock s.c.f. calculation:
  | Note that this energy does not include ANY quantities calculated after the
  | s.c.f. cycle, in particular not ANY RPA, MP2, etc. many-body perturbation terms.

  Final zero-broadening corrected energy:
  | For metallic systems only, a broadening of the occupation numbers at the Fermi
  | level can be extrapolated back to zero broadening by an electron-gas inspired
  | formula. For all systems that are not real metals, this value can be
  | meaningless and should be avoided.

------------------------------------------------------------------------------

------------------------------------------------------------
          Leaving FHI-aims.
          Date     :  20220120, Time     :  153325.797

          Computational steps:
          | Number of self-consistency cycles          :           31

          Detailed time accounting                     :  max(cpu_time)    wall_clock(cpu1)
          | Total time                                 :        1.067 s           1.159 s
          | Preparation time                           :        0.089 s           0.088 s
          | Grid partitioning                          :        0.007 s           0.007 s
          | Preloading free-atom quantities on grid    :        0.005 s           0.004 s
          | Free-atom superposition energy             :        0.003 s           0.002 s
          | Total time for integrations                :        0.322 s           0.320 s
          | Total time for solution of K.-S. equations :        0.060 s           0.065 s
          | Total time for density update              :        0.222 s           0.196 s
          | Total time for mixing                      :        0.054 s           0.055 s
          | Total time for Hartree multipole update    :        0.041 s           0.044 s
          | Total time for Hartree multipole sum       :        0.151 s           0.156 s
          | Total time for total energy evaluation     :        0.006 s           0.020 s
          | Total time for scaled ZORA corrections     :        0.000 s           0.000 s
          | Total time for vdW correction              :        0.002 s           0.002 s

          Have a nice day.
------------------------------------------------------------
