  MPI-parallelism will be employed.
------------------------------------------------------------
          Invoking FHI-aims ...
          Version 052014
          Git rev. (modified): 096c982 Merge branch master of fhiaims:/pub/localo[...]
          Compiled on 2016/12/16 at 15:22:01 on host login02.hpc.iitd.ac.in.

          When using FHI-aims, please cite the following reference:

          Volker Blum, Ralf Gehrke, Felix Hanke, Paula Havu,
          Ville Havu, Xinguo Ren, Karsten Reuter, and Matthias Scheffler,
          'Ab Initio Molecular Simulations with Numeric Atom-Centered Orbitals: FHI-aims',
          Computer Physics Communications 180, 2175-2196 (2009)

          For any questions about FHI-aims, please visit the aimsclub website
          with its forums and wiki. Contributions to both the forums and the
          wiki are warmly encouraged - they are for you, and everyone is welcome there.

------------------------------------------------------------

  Date     :  20220221, Time     :  151935.522
  Time zero on CPU 1             :   0.122310000000000E-01  s.
  Internal wall clock time zero  :           414688775.522  s.

  Using        8 parallel tasks.
  Task        0 on host csky071 reporting.
  Task        1 on host csky071 reporting.
  Task        2 on host csky071 reporting.
  Task        3 on host csky071 reporting.
  Task        4 on host csky071 reporting.
  Task        5 on host csky071 reporting.
  Task        6 on host csky071 reporting.
  Task        7 on host csky071 reporting.

  Performing system and environment tests:
  | Environment variable OMP_NUM_THREADS correctly set to 1.
  | Stacksize not measured: no C compiler
  | Checking for scalapack...
  | Testing pdtran()...
  | All pdtran() tests passed.

  Obtaining array dimensions for all initial allocations:
  
  -----------------------------------------------------------------------
  Parsing control.in (first pass over file, find array dimensions only).
  The contents of control.in will be repeated verbatim below
  unless switched off by setting 'verbatim_writeout .false.' .
  in the first line of control.in .
  -----------------------------------------------------------------------
  
    xc               pbe
    spin             collinear
    default_initial_moment hund
    relativistic     atomic_zora scalar 1e-9
    occupation_type  gaussian 0.001
    charge	0
    vdw_correction_hirshfeld
    KS_method        scalapack_fast
    mixer            pulay
    charge_mix_param  0.4
    spin_mix_param    0.6
    sc_accuracy_rho  1E-4
    sc_accuracy_eev  1E-5
    sc_accuracy_etot 1E-5
    sc_iter_limit    100
    empty_states     5
    ####### keywords for DOS########
    k_grid  12 12 1
  ##########################
  #  relax_geometry trm 5E-5
  #  sc_accuracy_forces 1e-6
  ##########################
    output dos -20 20 10000 0.01
    dos_kgrid_factors 2 2 1
  
  ################################################################################
  #
  #  FHI-aims code project
  # Volker Blum, Fritz Haber Institute Berlin, 2009
  #
  #  Suggested "tight" defaults for C atom (to be pasted into control.in file)
  #
  ################################################################################
    species        C
  #     global species definitions
      nucleus             6
      mass                12.0107
  #
      l_hartree           6
  #
      cut_pot             4.0  2.0  1.0
      basis_dep_cutoff    1e-4
  #
      radial_base         34 7.0
      radial_multiplier   2
      angular_grids specified
        division   0.2187   50
        division   0.4416  110
        division   0.6335  194
        division   0.7727  302
        division   0.8772  434
  #      division   0.9334  590
  #      division   0.9924  770
  #      division   1.0230  974
  #      division   1.5020 1202
  #     outer_grid  974
        outer_grid  434
  ################################################################################
  #
  #  Definition of "minimal" basis
  #
  ################################################################################
  #     valence basis states
      valence      2  s   2.
      valence      2  p   2.
  #     ion occupancy
      ion_occ      2  s   1.
      ion_occ      2  p   1.
  ################################################################################
  #
  #  Suggested additional basis functions. For production calculations,
  #  uncomment them one after another (the most important basis functions are
  #  listed first).
  #
  #  Constructed for dimers: 1.0 A, 1.25 A, 1.5 A, 2.0 A, 3.0 A
  #
  ################################################################################
  #  "First tier" - improvements: -1214.57 meV to -155.61 meV
       hydro 2 p 1.7
       hydro 3 d 6
       hydro 2 s 4.9
  #  "Second tier" - improvements: -67.75 meV to -5.23 meV
       hydro 4 f 9.8
       hydro 3 p 5.2
       hydro 3 s 4.3
       hydro 5 g 14.4
       hydro 3 d 6.2
  #  "Third tier" - improvements: -2.43 meV to -0.60 meV
  #     hydro 2 p 5.6
  #     hydro 2 s 1.4
  #     hydro 3 d 4.9
  #     hydro 4 f 11.2
  #  "Fourth tier" - improvements: -0.39 meV to -0.18 meV
  #     hydro 2 p 2.1
  #     hydro 5 g 16.4
  #     hydro 4 d 13.2
  #     hydro 3 s 13.6
  #     hydro 4 f 17.6
  #  Further basis functions - improvements: -0.08 meV and below
  #     hydro 3 s 2
  #     hydro 3 p 6
  #     hydro 4 d 20
  ################################################################################
  #
  # For methods that use the localized form of the "resolution of identity" for
  # the two-electron Coulomb operator (RI_method LVL), particularly Hartree-Fock and
  # hybrid density functional calculations, the highest accuracy can be obtained by
  # uncommenting the line beginning with "for_aux"  below, thus adding an extra g radial
  # function to the construction of the product basis set for the expansion.
  # See Ref. New J. Phys. 17, 093020 (2015) for more information, particularly Figs. 1 and 6.
  #
  ################################################################################
  #
  # for_aux hydro 5 g 6.0
  
  -----------------------------------------------------------------------
  Completed first pass over input file control.in .
  -----------------------------------------------------------------------
  
  
  -----------------------------------------------------------------------
  Parsing geometry.in (first pass over file, find array dimensions only).
  The contents of geometry.in will be repeated verbatim below
  unless switched off by setting 'verbatim_writeout .false.' .
  in the first line of geometry.in .
  -----------------------------------------------------------------------
  
  lattice_vector   2.1304216  -1.2299995   0.0000000
  lattice_vector   0.0000000   2.4599989   0.0000000
  lattice_vector   0.0000000   0.0000000   6.8000000
  
  atom_frac                      -0.666667  -0.333333   0.500000  C
  atom_frac                       0.666667   0.333333   0.500000  C
  
  
  -----------------------------------------------------------------------
  Completed first pass over input file geometry.in .
  -----------------------------------------------------------------------
  

  Basic array size parameters:
  | Number of species                 :        1
  | Number of atoms                   :        2
  | Number of lattice vectors         :        3
  | Max. basis fn. angular momentum   :        4
  | Max. atomic/ionic basis occupied n:        2
  | Max. number of basis fn. types    :        2
  | Max. radial fns per species/type  :        8
  | Max. logarithmic grid size        :     1277
  | Max. radial integration grid size :       69
  | Max. angular integration grid size:      434
  | Max. angular grid division number :        8
  | Radial grid for Hartree potential :     1277
  | Number of spin channels           :        2

------------------------------------------------------------
          Reading file control.in.
------------------------------------------------------------
  XC: Using PBE gradient-corrected functionals.
  Spin treatment: Spin density functional theory - collinear spins.
  Initial spin moment per atom set according to Hund's rules.
  Scalar relativistic treatment of kinetic energy: on-site free-atom approximation to ZORA.
  Occupation type: Gaussian broadening, width =   0.100000E-02 eV.
  Charge =   0.000000E+00: Neutral system requested explicitly.
  Using non-empirical van der Waals correction (Hirshfeld partitioning):
  Kohn-Sham eigenvalues and eigenfunctions calculated by the ELPA eigensolver library.
  Using pulay charge density mixing.
  Charge density mixing - mixing parameter:     0.4000
  Spin density mixing - mixing parameter:     0.6000
  Convergence accuracy of self-consistent charge density: 0.1000E-03
  Convergence accuracy of sum of eigenvalues: 0.1000E-04
  Convergence accuracy of total energy: 0.1000E-04
  Maximum number of s.-c. iterations  :   100
  Number of empty states per atom:        5
  Found k-point grid:        12        12         1
  Calculating density of states with
  | energy interval :-20.000000 20.000000
  | points & broadening : 10000  0.010000
  Found k-point grid multipliers for perturbative DOS :         2         2         1
 
  Reading configuration options for species C                   .
  | Found nuclear charge :   6.0000
  | Found atomic mass :    12.0107000000000      amu
  | Found l_max for Hartree potential  :   6
  | Found cutoff potl. onset [A], width [A], scale factor :    4.00000    2.00000    1.00000
  | Threshold for basis-dependent cutoff potential is   0.100000E-03
  | Found data for basic radial integration grid :    34 points, outermost radius =    7.000 A
  | Found multiplier for basic radial grid :   2
  | Found angular grid specification: user-specified.
  | Specified grid contains     6 separate shells.
  | Check grid settings after all constraints further below.
  | Found free-atom valence shell :  2 s   2.000
  | Found free-atom valence shell :  2 p   2.000
  | No ionic wave fns used. Skipping ion_occ.
  | No ionic wave fns used. Skipping ion_occ.
  | Found hydrogenic basis function :  2 p   1.700
  | Found hydrogenic basis function :  3 d   6.000
  | Found hydrogenic basis function :  2 s   4.900
  | Found hydrogenic basis function :  4 f   9.800
  | Found hydrogenic basis function :  3 p   5.200
  | Found hydrogenic basis function :  3 s   4.300
  | Found hydrogenic basis function :  5 g  14.400
  | Found hydrogenic basis function :  3 d   6.200
  Species C                   : Missing cutoff potential type.
  Defaulting to exp(1/x)/(1-x)^2 type cutoff potential.
  Species C : No 'logarithmic' tag. Using default grid for free atom:
  | Default logarithmic grid data [bohr] : 0.1000E-03 0.1000E+03 0.1012E+01
  Species C : On-site basis accuracy parameter (for Gram-Schmidt orthonormalisation) not specified.
  Using default value basis_acc =  0.1000000E-03.
  Species C                   : Using default innermost maximum threshold i_radial=  2 for radial functions.
  Species C                   : Default cutoff onset for free atom density etc. : 0.40000000E+01 AA.
  Species C                   : Basic radial grid will be enhanced according to radial_multiplier =   2, to contain    69 grid points.
 
  Finished reading input file 'control.in'. Consistency checks are next.
 
  Target number of points in a grid batch is not set. Defaulting to  100
  Method for grid partitioning is not set. Defaulting to parallel hash+maxmin partitioning.
  Batch size limit is not set. Defaulting to    200
  By default, will store active basis functions for each batch.
  If in need of memory, prune_basis_once .false. can be used to disable this option.
  communication_type for Hartree potential was not specified.
  Defaulting to calc_hartree .
  Pulay mixer: Number of relevant iterations not set.
  Defaulting to    8 iterations.
  Pulay mixer: Number of initial linear mixing iterations not set.
  Defaulting to    0 iterations.
  Work space size for distributed Hartree potential not set.
  Defaulting to   0.200000E+03 MB.
  Algorithm-dependent basis array size parameters:
  | n_max_pulay                         :        8
  Calculation of forces was not defined in control.in. No forces will be calculated.
  Geometry relaxation not requested: no relaxation will be performed.
  No accuracy limit for integral partition fn. given. Defaulting to 0.1000E-14.
  No threshold value for u(r) in integrations given. Defaulting to 0.1000E-05.
  No accuracy for occupation numbers given. Defaulting to 0.1000E-07.
  No threshold value for occupation numbers given. Defaulting to 0.0000E+00.
  No accuracy for fermi level given. Defaulting to 0.1000E-19.
  Maximum # of iterations to find E_F not set. Defaulting to  200.
 * You have   144 k-points in your system, but only     8 MPI-tasks available.
 * In this case using ScaLAPACK is not necessary / supported.
 * Switching to default eigenvalue solver (lapack_fast) instead.
  Will not use alltoall communication since running on < 1024 CPUs.
  Threshold for basis singularities not set.
  Default threshold for basis singularities: 0.1000E-04
  partition_type (choice of integration weights) for integrals was not specified.
  | Using a version of the partition function of Stratmann and coworkers ('stratmann_smoother').
  | At each grid point, the set of atoms used to build the partition table is smoothly restricted to
  | only those atoms whose free-atom density would be non-zero at that grid point.
  Partitioning for Hartree potential was not defined. Using partition_type for integrals.
  | Adjusted default value of keyword multip_moments_threshold to:       0.10000000E-11
  | This value may affect high angular momentum components of the Hartree potential in periodic systems.
  Angular momentum expansion for Kerker preconditioner not set explicitly.
  | Using default value of   0
  No explicit requirement for turning off preconditioner.
  | By default, it will be turned off when the charge convergence reaches
  | sc_accuracy_rho  =   0.100000E-03
  | sc_accuracy_eev  =   0.100000E-04
  | sc_accuracy_etot =   0.100000E-04
  No special mixing parameter while Kerker preconditioner is on.
  Using default: charge_mix_param =     0.4000.
  No q(lm)/r^(l+1) cutoff set for long-range Hartree potential.
  | Using default value of  0.100000E-09 .
  | Verify using the multipole_threshold keyword.
  Defaulting to new monopole extrapolation.
  Density update method: automatic selection selected.
  Using density matrix based charge density update.
  Using density matrix based charge density update.
  Using packed matrix style: index .
  Defaulting to use time-reversal symmetry for k-point grid.
  Using the following vdw_convergence_threshold for supercell sums
  over the Tkatchenko-Scheffler correction: 0.100000E-04 eV.
------------------------------------------------------------


------------------------------------------------------------
          Reading geometry description geometry.in.
------------------------------------------------------------
  Input structure read successfully.
  The structure contains        2 atoms,  and a total of         12.000 electrons.

  Input geometry:
  | Unit cell:
  |         2.130422        -1.229999         0.000000
  |         0.000000         2.459999         0.000000
  |         0.000000         0.000000         6.800000
  | Atomic structure:
  |       Atom                x [A]            y [A]            z [A]
  |    1: Species C             -1.420282         0.000001         3.400000
  |    2: Species C              1.420282        -0.000001         3.400000
  |

  | The smallest distance between any two atoms is         1.42027960 AA.
  |
  | The first atom of this pair is atom number                      2 .
  | The second atom of this pair is atom number                     1 .
  | Wigner-Seitz cell of the first atom image           1     0     0 .
  | (The Wigner-Seitz cell of the second atom is 0 0 0  by definition.)

  Quantities derived from the lattice vectors:
  | Reciprocal lattice vector 1:  2.949268 -0.000000  0.000000
  | Reciprocal lattice vector 2:  1.474634  2.554142  0.000000
  | Reciprocal lattice vector 3:  0.000000  0.000000  0.923998
  | Unit cell volume                               :   0.356377E+02  A^3

  Initial moments and charges:
  |  Atom   Moment         Charge        Species
  |     1  (Hund's rule)   0.000000E+00   C
  |     2  (Hund's rule)   0.000000E+00   C

  Structure-dependent array size parameters: 
  | Number of distinct atom types in initial rho :        1
  | Maximum number of distinct radial functions  :       11
  | Maximum number of basis functions            :       78
  | Number of Kohn-Sham states (occupied + empty):       11
------------------------------------------------------------

------------------------------------------------------------
          Preparing all fixed parts of the calculation.
------------------------------------------------------------
  Determining machine precision:
    2.225073858507201E-308
  Setting up grids for atomic and cluster calculations.

  Creating wave function, potential, and density for free atoms.

  Species: C

  List of occupied orbitals and eigenvalues:
    n    l              occ      energy [Ha]    energy [eV]
    1    0           2.0000       -10.049212      -273.4530
    2    0           2.0000        -0.504761       -13.7352
    2    1           2.0000        -0.193631        -5.2690

  Spin-polarized or charged system:
  Charge density initialized according to selected moments and charges.

  Creating spin-polarized density from free atoms.

  Species: C
  Charge:   0.000000
  applying Hund's rules ...

  List of occupied orbitals and eigenvalues:
    n    l      energy [Ha]    energy [eV]    occupation
  Spin-up
    1    0       -10.040873      -273.2261     1.00000000
    2    0        -0.537730       -14.6324     1.00000000
    2    1        -0.223635        -6.0854     2.00000000
  Spin-down
    1    0       -10.011077      -272.4153     1.00000000
    2    0        -0.436278       -11.8717     1.00000000
    2    1        -0.132089        -3.5943     0.00000000

  Creating fixed part of basis set: Ionic, confined, hydrogenic.
 
  C                    hydrogenic:
 
  List of hydrogenic basis orbitals: 
    n    l      effective z      eigenvalue [eV]  inner max. [A]     outer max. [A]     outer radius [A]   
    2    1         1.700000        -9.8152           1.245706           1.245706           5.401630
    3    2         6.000000       -54.4226           0.792453           0.792453           4.178599
    2    0         4.900000       -81.6681           0.082559           0.562749           3.353238
    4    3         9.800000       -81.6681           0.863254           0.863254           4.028125
    3    1         5.200000       -40.8774           0.305389           1.215618           4.898362
    3    0         4.300000       -27.9508           0.091041           1.610311           5.401630
    5    4        14.400000      -112.8510           0.917666           0.917666           3.883070
    3    2         6.200000       -58.1113           0.763917           0.763917           4.077671
 

  Adding cutoff potential to free-atom effective potential.
  Creating atomic-like basis functions for current effective potential.

  Species C                   :

  List of atomic basis orbitals and eigenvalues:
    n    l      energy [Ha]    energy [eV]    outer radius [A]
    1    0       -10.049212      -273.4530       1.934409
    2    0        -0.504761       -13.7352       5.271162
    2    1        -0.193631        -5.2690       5.401630

  Assembling full basis from fixed parts.
  | Species C :   atomic orbital   1 s accepted.
  | Species C :    hydro orbital   2 s accepted.
  | Species C :   atomic orbital   2 s accepted.
  | Species C :    hydro orbital   3 s accepted.
  | Species C :    hydro orbital   3 p accepted.
  | Species C :   atomic orbital   2 p accepted.
  | Species C :    hydro orbital   2 p accepted.
  | Species C :    hydro orbital   3 d accepted.
  | Species C :    hydro orbital   3 d accepted.
  | Species C :    hydro orbital   4 f accepted.
  | Species C :    hydro orbital   5 g accepted.
 
  Basis size parameters after reduction:
  | Total number of radial functions:       11
  | Total number of basis functions :       78
 
  Testing on-site integration grid accuracy.
  |  Species  Function  <phi|h_atom|phi> (log., in eV)  <phi|h_atom|phi> (rad., in eV)
           1        1               -273.4529725981               -273.4529710451
           1        2                -10.7721037329                -10.7721022102
           1        3                 17.6044132585                 17.6044162052
           1        4                 53.7706460564                 53.7706913681
           1        5                 15.0973290351                 15.0973256011
           1        6                  3.8545134677                  3.8545724657
           1        7                 12.1156992586                 12.1182024423
           1        8                 29.4352039288                 29.4352041805
           1        9                 54.8741144697                 54.8740268719
           1       10                 59.3556032036                 59.3556031370
           1       11                 93.4551837140                 93.4551837996

  Preparing densities etc. for the partition functions (integrals / Hartree potential).

  Preparations completed.
  max(cpu_time)          :      0.160 s.
  Wall clock time (cpu1) :      0.162 s.
------------------------------------------------------------

------------------------------------------------------------
          Begin self-consistency loop: Initialization.

          Date     :  20220221, Time     :  151935.743
------------------------------------------------------------

  Initializing index lists of integration centers etc. from given atomic structure:
  Mapping all atomic coordinates to central unit cell.

  Initializing the k-points
          Using symmetry for reducing the k-points
  | k-points reduced from:      144 to       74
  | Number of k-points                             :        74
  The eigenvectors in the calculations are COMPLEX.
  | K-points in task   0:         9
  | K-points in task   1:        10
  | K-points in task   2:        10
  | K-points in task   3:         9
  | K-points in task   4:         9
  | K-points in task   5:         9
  | K-points in task   6:         9
  | K-points in task   7:         9
  | Number of basis functions in the Hamiltonian integrals :      3472
  | Number of basis functions in a single unit cell        :        78
  | Number of centers in hartree potential         :       646
  | Number of centers in hartree multipole         :       548
  | Number of centers in electron density summation:       428
  | Number of centers in basis integrals           :       456
  | Number of centers in integrals                 :       136
  | Consuming        270 KiB for k_phase.
  | Number of super-cells :                 234
  | Size of matrix packed + index :      284874
  Perform CPU consistency test for lattice for partition grid
  Perform CPU consistency test for map_to_center_cell_matrix for partition grid
  Partitioning the integration grid into batches with parallel hashing+maxmin method.
  | Number of batches:      496
  | Maximal batch size:     108
  | Minimal batch size:      50
  | Average batch size:      72.895
  | Standard deviation of batch sizes:      20.938

  Integration load balanced across     8 MPI tasks.
  Work distribution over tasks is as follows:
  Task     0 has       4522 integration points.
  Task     1 has       4521 integration points.
  Task     2 has       4485 integration points.
  Task     3 has       4502 integration points.
  Task     4 has       4502 integration points.
  Task     5 has       4538 integration points.
  Task     6 has       4549 integration points.
  Task     7 has       4537 integration points.
  Initializing partition tables, free-atom densities, potentials, etc. across the integration grid (initialize_grid_storage).
  | initialize_grid_storage: Actual outermost partition radius vs. multipole_radius_free
  | (-- VB: in principle, multipole_radius_free should be larger, hence this output)
  | Species        1: outer_partition_radius =              6.000000000000000 AA, multipole_radius_free =              6.029870734432609 AA.
  | Original list of interatomic distances with         456 x        456 entries is created.
  | Net number of integration points:    36156
  | of which are non-zero points    :    26826
  | Numerical average free-atom electrostatic potential    :     -6.92761138 eV
  Obtaining max. number of non-zero basis functions in each batch (get_n_compute_maxes).
  | Maximal number of non-zero basis functions:     1323 in task     0
  | Maximal number of non-zero basis functions:     1222 in task     1
  | Maximal number of non-zero basis functions:     1309 in task     2
  | Maximal number of non-zero basis functions:     1309 in task     3
  | Maximal number of non-zero basis functions:     1309 in task     4
  | Maximal number of non-zero basis functions:     1309 in task     5
  | Maximal number of non-zero basis functions:     1318 in task     6
  | Maximal number of non-zero basis functions:     1309 in task     7
  Integrating Hamiltonian matrix: batch-based integration.
  Time summed over all CPUs for integration: real work       14.358 s, elapsed       14.678 s
  Integrating overlap matrix.
  Time summed over all CPUs for integration: real work        5.917 s, elapsed        6.070 s
  Decreasing sparse matrix size:
   Tolerance:  9.999999824516700E-014
   Hamiltonian matrix
  | Array has   179225 nonzero elements out of   284874 elements
  | Sparsity factor is 0.371
   Overlap matrix
  | Array has   161147 nonzero elements out of   284874 elements
  | Sparsity factor is 0.434
  New size of hamiltonian matrix:      180040

  Updating Kohn-Sham eigenvalues, eigenvectors, occupation numbers, and Fermi level.
  Solving generalized eigenproblem
  Transforming overlap matrix and checking for singularities.
  Overlap matrix is nonsingular at first k-point:
  | Lowest eigenvalue:  0.153553E-03
  Determining occupation numbers for Kohn-Sham eigenstates.
  | Chemical potential (Fermi level) in eV                 : -.81211623E+01
  | Error in electron count due to remaining E_F inaccuracy: 0.21493918E-12
  | Maximum occupation number of highest empty state:  0.00E+00

  Writing Kohn-Sham eigenvalues.

  Spin-up eigenvalues:
  K-point:       1 at    0.000000    0.000000    0.000000 (in units of recip. lattice)

  State    Occupation    Eigenvalue [Ha]    Eigenvalue [eV]
      1       1.00000         -10.181848         -277.06218
      2       1.00000         -10.180882         -277.03589
      3       1.00000          -1.102207          -29.99257
      4       1.00000          -0.620114          -16.87417
      5       1.00000          -0.528020          -14.36816
      6       1.00000          -0.528017          -14.36806
      7       0.00000          -0.085400           -2.32384
      8       0.00000          -0.085394           -2.32369
      9       0.00000          -0.024009           -0.65332
     10       0.00000           0.040709            1.10776
     11       0.00000           0.048401            1.31707

  Spin-down eigenvalues:
  K-point:       1 at    0.000000    0.000000    0.000000 (in units of recip. lattice)

  State    Occupation    Eigenvalue [Ha]    Eigenvalue [eV]
      1       1.00000         -10.149912         -276.19315
      2       1.00000         -10.148980         -276.16780
      3       1.00000          -0.975509          -26.54495
      4       1.00000          -0.506695          -13.78788
      5       1.00000          -0.396552          -10.79073
      6       1.00000          -0.396548          -10.79063
      7       0.00000           0.040540            1.10314
      8       0.00000           0.040544            1.10325
      9       0.00000           0.041938            1.14118
     10       0.00000           0.094711            2.57721
     11       0.00000           0.163747            4.45578

  Current spin moment of the entire structure :
  | N = N_up - N_down (sum over all k points):         0.18919
  | S (sum over all k points)                :         0.09459

  What follows are estimated values for band gap, HOMO, LUMO, etc.
  | They are estimated on a discrete k-point grid and not necessarily exact.
  | For converged numbers, create a DOS and/or band structure plot on a denser k-grid.

  Highest occupied state (VBM) at     -8.14665591 eV (relative to internal zero)
  | Occupation number:      1.00000000
  | K-point:      46 at    0.416667    0.166667    0.000000 (in units of recip. lattice)
  | Spin channel:        2

  Lowest unoccupied state (CBM) at    -8.08385530 eV (relative to internal zero)
  | Occupation number:      0.00000000
  | K-point:      46 at    0.416667    0.166667    0.000000 (in units of recip. lattice)
  | Spin channel:        1

  ESTIMATED overall HOMO-LUMO gap:      0.06280061 eV between HOMO at k-point 46 and LUMO at k-point 46
  | This appears to be a direct band gap.
  However, the gap value is rather small. Since we use a finite k-point grid,
  this material is most likely metallic (in the sense that there are states
  at or near the Fermi level). A DOS and/or band structure plot is required
  for an unambiguous distinction.
  Calculating total energy contributions from superposition of free atom densities.

  Total energy components:
  | Sum of eigenvalues            :         -45.93707439 Ha       -1250.01139396 eV
  | XC energy correction          :         -10.83312258 Ha        -294.78426400 eV
  | XC potential correction       :          13.93338521 Ha         379.14670243 eV
  | Free-atom electrostatic energy:         -33.32004492 Ha        -906.68455390 eV
  | Hartree energy correction     :           0.00000000 Ha           0.00000000 eV
  | van der Waals energy corr.    :           0.00000000 Ha           0.00000000 eV
  | Entropy correction            :          -0.00000000 Ha          -0.00000000 eV
  | ---------------------------
  | Total energy                  :         -76.15685668 Ha       -2072.33350942 eV
  | Total energy, T -> 0          :         -76.15685668 Ha       -2072.33350942 eV  <-- do not rely on this value for anything but (periodic) metals
  | Electronic free energy        :         -76.15685668 Ha       -2072.33350942 eV

  Derived energy quantities:
  | Kinetic energy                :          76.18463194 Ha        2073.08931266 eV
  | Electrostatic energy          :        -141.50836603 Ha       -3850.63855809 eV
  | Energy correction for multipole
  | error in Hartree potential    :           0.00000000 Ha           0.00000000 eV
  | Sum of eigenvalues per atom                           :        -625.00569698 eV
  | Total energy (T->0) per atom                          :       -1036.16675471 eV  <-- do not rely on this value for anything but (periodic) metals
  | Electronic free energy per atom                       :       -1036.16675471 eV
  Initialize hartree_potential_storage
  Max. number of atoms included in rho_multipole:            2

  End scf initialization - timings             :  max(cpu_time)    wall_clock(cpu1)
  | Time for scf. initialization               :        3.188 s           3.195 s
  | Boundary condition initialization          :        0.071 s           0.071 s
  | Integration                                :        2.609 s           2.615 s
  | Solution of K.-S. eqns.                    :        0.101 s           0.102 s
  | Grid partitioning                          :        0.056 s           0.057 s
  | Preloading free-atom quantities on grid    :        0.005 s           0.005 s
  | Free-atom superposition energy             :        0.031 s           0.031 s
  | Total energy evaluation                    :        0.000 s           0.001 s
------------------------------------------------------------

------------------------------------------------------------
          Begin self-consistency iteration #    1

  Date     :  20220221, Time     :  151938.938
------------------------------------------------------------
  Evaluating new KS density using the density matrix
  Evaluating density matrix
  Evaluating density matrix
  Time summed over all CPUs for getting density from density matrix: real work       25.973 s, elapsed       26.499 s
  Integration grid: deviation in total charge (<rho> - N_e) =  -2.405867E-06
  | <rho_up-rho_dn> = N_up-N_dn =     -3.6111; <|rho_up-rho_dn|> =      3.6111
  Pulay mixing of updated and previous charge densities.

  Evaluating partitioned Hartree potential by multipole expansion.
  | Analytical far-field extrapolation by fixed multipoles:
  | Hartree multipole sum: apparent total charge =   0.346125E-03
  Summing up the Hartree potential.
  | Estimated reciprocal-space cutoff momentum G_max:         3.32253784 bohr^-1 .
  | Reciprocal lattice points for long-range Hartree potential:     150
  Time summed over all CPUs for potential: real work        2.078 s, elapsed        2.131 s
  | RMS charge density error from multipole expansion :   0.333661E-02
  | Average real-space part of the electrostatic potential :      0.12613575 eV

  Integrating Hamiltonian matrix: batch-based integration.
  Time summed over all CPUs for integration: real work       13.432 s, elapsed       13.747 s

  Updating Kohn-Sham eigenvalues, eigenvectors, occupation numbers, and Fermi level.
  Solving generalized eigenproblem
  Determining occupation numbers for Kohn-Sham eigenstates.
  | Chemical potential (Fermi level) in eV                 : -.66071767E+01
  | Error in electron count due to remaining E_F inaccuracy: 0.21493918E-12
  | Maximum occupation number of highest empty state:  0.00E+00

  Writing Kohn-Sham eigenvalues.

  Spin-up eigenvalues:
  K-point:       1 at    0.000000    0.000000    0.000000 (in units of recip. lattice)

  State    Occupation    Eigenvalue [Ha]    Eigenvalue [eV]
      1       1.00000         -10.059930         -273.74462
      2       1.00000         -10.058958         -273.71817
      3       1.00000          -1.014499          -27.60593
      4       1.00000          -0.558193          -15.18921
      5       1.00000          -0.418717          -11.39388
      6       1.00000          -0.418714          -11.39380
      7       0.00000          -0.011089           -0.30175
      8       0.00000           0.009337            0.25406
      9       0.00000           0.009342            0.25421
     10       0.00000           0.054834            1.49212
     11       0.00000           0.127873            3.47961

  Spin-down eigenvalues:
  K-point:       1 at    0.000000    0.000000    0.000000 (in units of recip. lattice)

  State    Occupation    Eigenvalue [Ha]    Eigenvalue [eV]
      1       1.00000         -10.039879         -273.19900
      2       1.00000         -10.038927         -273.17311
      3       1.00000          -0.924425          -25.15488
      4       1.00000          -0.472511          -12.85769
      5       1.00000          -0.335015           -9.11623
      6       1.00000          -0.335012           -9.11614
      7       0.00000           0.025205            0.68587
      8       0.00000           0.071254            1.93891
      9       0.00000           0.098136            2.67041
     10       0.00000           0.098140            2.67052
     11       0.00000           0.220043            5.98766

  Current spin moment of the entire structure :
  | N = N_up - N_down (sum over all k points):         0.02703
  | S (sum over all k points)                :         0.01351

  What follows are estimated values for band gap, HOMO, LUMO, etc.
  | They are estimated on a discrete k-point grid and not necessarily exact.
  | For converged numbers, create a DOS and/or band structure plot on a denser k-grid.

  Highest occupied state (VBM) at     -6.62248171 eV (relative to internal zero)
  | Occupation number:      1.00000000
  | K-point:      65 at    0.666667    0.750000    0.000000 (in units of recip. lattice)
  | Spin channel:        2

  Lowest unoccupied state (CBM) at    -6.40351226 eV (relative to internal zero)
  | Occupation number:      0.00000000
  | K-point:      65 at    0.666667    0.750000    0.000000 (in units of recip. lattice)
  | Spin channel:        1

  ESTIMATED overall HOMO-LUMO gap:      0.21896944 eV between HOMO at k-point 65 and LUMO at k-point 65
  | This appears to be a direct band gap.
  The gap value is above 0.2 eV. Unless you are using a very sparse k-point grid,
  this system is most likely an insulator or a semiconductor.

  Total energy components:
  | Sum of eigenvalues            :         -44.90643377 Ha       -1221.96623580 eV
  | XC energy correction          :         -10.83380800 Ha        -294.80291503 eV
  | XC potential correction       :          13.92653570 Ha         378.96031773 eV
  | Free-atom electrostatic energy:         -33.32004492 Ha        -906.68455390 eV
  | Hartree energy correction     :          -1.03932709 Ha         -28.28152898 eV
  | van der Waals energy corr.    :           0.00000000 Ha           0.00000000 eV
  | Entropy correction            :          -0.00000000 Ha          -0.00000000 eV
  | ---------------------------
  | Total energy                  :         -76.17307807 Ha       -2072.77491599 eV
  | Total energy, T -> 0          :         -76.17307807 Ha       -2072.77491599 eV  <-- do not rely on this value for anything but (periodic) metals
  | Electronic free energy        :         -76.17307807 Ha       -2072.77491599 eV

  Derived energy quantities:
  | Kinetic energy                :          76.30960910 Ha        2076.49011413 eV
  | Electrostatic energy          :        -141.64887917 Ha       -3854.46211509 eV
  | Energy correction for multipole
  | error in Hartree potential    :          -0.00488357 Ha          -0.13288881 eV
  | Sum of eigenvalues per atom                           :        -610.98311790 eV
  | Total energy (T->0) per atom                          :       -1036.38745799 eV  <-- do not rely on this value for anything but (periodic) metals
  | Electronic free energy per atom                       :       -1036.38745799 eV

  Self-consistency convergence accuracy:
  | Change of charge/spin density : 0.2291E+00 0.4961E+00
  | Change of sum of eigenvalues  : 0.2805E+02 eV
  | Change of total energy        : -.4414E+00 eV

  End self-consistency iteration #     1       :  max(cpu_time)    wall_clock(cpu1)
  | Time for this iteration                    :        5.585 s           5.598 s
  | Charge density update                      :        3.325 s           3.333 s
  | Density mixing & preconditioning           :        0.213 s           0.213 s
  | Hartree multipole update                   :        0.002 s           0.002 s
  | Hartree multipole summation                :        0.271 s           0.272 s
  | Integration                                :        1.721 s           1.725 s
  | Solution of K.-S. eqns.                    :        0.050 s           0.051 s
  | Total energy evaluation                    :        0.000 s           0.001 s
------------------------------------------------------------

------------------------------------------------------------
          Begin self-consistency iteration #    2

  Date     :  20220221, Time     :  151944.539
------------------------------------------------------------
  Evaluating new KS density using the density matrix
  Evaluating density matrix
  Evaluating density matrix
  Time summed over all CPUs for getting density from density matrix: real work       25.789 s, elapsed       26.345 s
  Integration grid: deviation in total charge (<rho> - N_e) =   3.461840E-04
  | <rho_up-rho_dn> = N_up-N_dn =     -2.8024; <|rho_up-rho_dn|> =      2.8024
  Pulay mixing of updated and previous charge densities.

  Evaluating partitioned Hartree potential by multipole expansion.
  | Analytical far-field extrapolation by fixed multipoles:
  | Hartree multipole sum: apparent total charge =   0.503730E-03
  Summing up the Hartree potential.
  Time summed over all CPUs for potential: real work        2.140 s, elapsed        2.195 s
  | RMS charge density error from multipole expansion :   0.852280E-02
  | Average real-space part of the electrostatic potential :      0.27664594 eV

  Integrating Hamiltonian matrix: batch-based integration.
  Time summed over all CPUs for integration: real work       13.556 s, elapsed       13.833 s

  Updating Kohn-Sham eigenvalues, eigenvectors, occupation numbers, and Fermi level.
  Solving generalized eigenproblem
  Determining occupation numbers for Kohn-Sham eigenstates.
  | Chemical potential (Fermi level) in eV                 : -.50854062E+01
  | Error in electron count due to remaining E_F inaccuracy: 0.21493918E-12
  | Maximum occupation number of highest empty state:  0.00E+00

  Current spin moment of the entire structure :
  | N = N_up - N_down (sum over all k points):         0.02703
  | S (sum over all k points)                :         0.01351

  What follows are estimated values for band gap, HOMO, LUMO, etc.
  | They are estimated on a discrete k-point grid and not necessarily exact.
  | For converged numbers, create a DOS and/or band structure plot on a denser k-grid.

  Highest occupied state (VBM) at     -5.19410651 eV (relative to internal zero)
  | Occupation number:      1.00000000
  | K-point:      38 at    0.333333    0.333333    0.000000 (in units of recip. lattice)
  | Spin channel:        1

  Lowest unoccupied state (CBM) at    -4.84053148 eV (relative to internal zero)
  | Occupation number:      0.00000000
  | K-point:      38 at    0.333333    0.333333    0.000000 (in units of recip. lattice)
  | Spin channel:        2

  ESTIMATED overall HOMO-LUMO gap:      0.35357502 eV between HOMO at k-point 38 and LUMO at k-point 38
  | This appears to be a direct band gap.
  The gap value is above 0.2 eV. Unless you are using a very sparse k-point grid,
  this system is most likely an insulator or a semiconductor.

  Total energy components:
  | Sum of eigenvalues            :         -43.87599503 Ha       -1193.92657106 eV
  | XC energy correction          :         -10.85528303 Ha        -295.38728040 eV
  | XC potential correction       :          13.94758333 Ha         379.53305278 eV
  | Free-atom electrostatic energy:         -33.32004492 Ha        -906.68455390 eV
  | Hartree energy correction     :          -2.11980239 Ha         -57.68275799 eV
  | van der Waals energy corr.    :           0.00000000 Ha           0.00000000 eV
  | Entropy correction            :           0.00000000 Ha           0.00000000 eV
  | ---------------------------
  | Total energy                  :         -76.22354205 Ha       -2074.14811057 eV
  | Total energy, T -> 0          :         -76.22354205 Ha       -2074.14811057 eV  <-- do not rely on this value for anything but (periodic) metals
  | Electronic free energy        :         -76.22354205 Ha       -2074.14811057 eV

  Derived energy quantities:
  | Kinetic energy                :          76.13780958 Ha        2071.81521160 eV
  | Electrostatic energy          :        -141.50606860 Ha       -3850.57604177 eV
  | Energy correction for multipole
  | error in Hartree potential    :          -0.01183992 Ha          -0.32218069 eV
  | Sum of eigenvalues per atom                           :        -596.96328553 eV
  | Total energy (T->0) per atom                          :       -1037.07405529 eV  <-- do not rely on this value for anything but (periodic) metals
  | Electronic free energy per atom                       :       -1037.07405529 eV

  Self-consistency convergence accuracy:
  | Change of charge/spin density : 0.1231E+00 0.3577E+00
  | Change of sum of eigenvalues  : 0.2804E+02 eV
  | Change of total energy        : -.1373E+01 eV

  End self-consistency iteration #     2       :  max(cpu_time)    wall_clock(cpu1)
  | Time for this iteration                    :        5.567 s           5.579 s
  | Charge density update                      :        3.305 s           3.312 s
  | Density mixing & preconditioning           :        0.199 s           0.199 s
  | Hartree multipole update                   :        0.002 s           0.002 s
  | Hartree multipole summation                :        0.279 s           0.279 s
  | Integration                                :        1.731 s           1.735 s
  | Solution of K.-S. eqns.                    :        0.050 s           0.051 s
  | Total energy evaluation                    :        0.000 s           0.000 s
------------------------------------------------------------

------------------------------------------------------------
          Begin self-consistency iteration #    3

  Date     :  20220221, Time     :  151950.120
------------------------------------------------------------
  Evaluating new KS density using the density matrix
  Evaluating density matrix
  Evaluating density matrix
  Time summed over all CPUs for getting density from density matrix: real work       25.857 s, elapsed       26.413 s
  Integration grid: deviation in total charge (<rho> - N_e) =   5.043483E-04
  | <rho_up-rho_dn> = N_up-N_dn =     -0.3224; <|rho_up-rho_dn|> =      0.3446
  Pulay mixing of updated and previous charge densities.

  Evaluating partitioned Hartree potential by multipole expansion.
  | Analytical far-field extrapolation by fixed multipoles:
  | Hartree multipole sum: apparent total charge =   0.606871E-04
  Summing up the Hartree potential.
  Time summed over all CPUs for potential: real work        2.133 s, elapsed        2.188 s
  | RMS charge density error from multipole expansion :   0.818362E-02
  | Average real-space part of the electrostatic potential :      0.25396116 eV

  Integrating Hamiltonian matrix: batch-based integration.
  Time summed over all CPUs for integration: real work       13.325 s, elapsed       13.582 s

  Updating Kohn-Sham eigenvalues, eigenvectors, occupation numbers, and Fermi level.
  Solving generalized eigenproblem
  Determining occupation numbers for Kohn-Sham eigenstates.
  | Chemical potential (Fermi level) in eV                 : -.53336179E+01
  | Error in electron count due to remaining E_F inaccuracy: 0.21493918E-12
  | Maximum occupation number of highest empty state:  0.00E+00

  Current spin moment of the entire structure :
  | N = N_up - N_down (sum over all k points):         0.02703
  | S (sum over all k points)                :         0.01351

  What follows are estimated values for band gap, HOMO, LUMO, etc.
  | They are estimated on a discrete k-point grid and not necessarily exact.
  | For converged numbers, create a DOS and/or band structure plot on a denser k-grid.

  Highest occupied state (VBM) at     -5.52540305 eV (relative to internal zero)
  | Occupation number:      1.00000000
  | K-point:      38 at    0.333333    0.333333    0.000000 (in units of recip. lattice)
  | Spin channel:        1

  Lowest unoccupied state (CBM) at    -5.24762050 eV (relative to internal zero)
  | Occupation number:      0.00000000
  | K-point:      38 at    0.333333    0.333333    0.000000 (in units of recip. lattice)
  | Spin channel:        2

  ESTIMATED overall HOMO-LUMO gap:      0.27778255 eV between HOMO at k-point 38 and LUMO at k-point 38
  | This appears to be a direct band gap.
  The gap value is above 0.2 eV. Unless you are using a very sparse k-point grid,
  this system is most likely an insulator or a semiconductor.

  Total energy components:
  | Sum of eigenvalues            :         -44.15210377 Ha       -1201.43987211 eV
  | XC energy correction          :         -10.82646474 Ha        -294.60309483 eV
  | XC potential correction       :          13.90978333 Ha         378.50446256 eV
  | Free-atom electrostatic energy:         -33.32004492 Ha        -906.68455390 eV
  | Hartree energy correction     :          -1.83521752 Ha         -49.93880945 eV
  | van der Waals energy corr.    :           0.00000000 Ha           0.00000000 eV
  | Entropy correction            :           0.00000000 Ha           0.00000000 eV
  | ---------------------------
  | Total energy                  :         -76.22404761 Ha       -2074.16186774 eV
  | Total energy, T -> 0          :         -76.22404761 Ha       -2074.16186774 eV  <-- do not rely on this value for anything but (periodic) metals
  | Electronic free energy        :         -76.22404761 Ha       -2074.16186774 eV

  Derived energy quantities:
  | Kinetic energy                :          76.02023285 Ha        2068.61578573 eV
  | Electrostatic energy          :        -141.41781572 Ha       -3848.17455864 eV
  | Energy correction for multipole
  | error in Hartree potential    :          -0.01135717 Ha          -0.30904439 eV
  | Sum of eigenvalues per atom                           :        -600.71993606 eV
  | Total energy (T->0) per atom                          :       -1037.08093387 eV  <-- do not rely on this value for anything but (periodic) metals
  | Electronic free energy per atom                       :       -1037.08093387 eV

  Self-consistency convergence accuracy:
  | Change of charge/spin density : 0.4314E-01 0.4404E-01
  | Change of sum of eigenvalues  : -.7513E+01 eV
  | Change of total energy        : -.1376E-01 eV

  End self-consistency iteration #     3       :  max(cpu_time)    wall_clock(cpu1)
  | Time for this iteration                    :        5.536 s           5.548 s
  | Charge density update                      :        3.312 s           3.320 s
  | Density mixing & preconditioning           :        0.195 s           0.195 s
  | Hartree multipole update                   :        0.002 s           0.002 s
  | Hartree multipole summation                :        0.278 s           0.278 s
  | Integration                                :        1.698 s           1.702 s
  | Solution of K.-S. eqns.                    :        0.050 s           0.050 s
  | Total energy evaluation                    :        0.000 s           0.000 s
------------------------------------------------------------

------------------------------------------------------------
          Begin self-consistency iteration #    4

  Date     :  20220221, Time     :  151955.670
------------------------------------------------------------
  Evaluating new KS density using the density matrix
  Evaluating density matrix
  Evaluating density matrix
  Time summed over all CPUs for getting density from density matrix: real work       25.722 s, elapsed       26.260 s
  Integration grid: deviation in total charge (<rho> - N_e) =   6.124740E-05
  | <rho_up-rho_dn> = N_up-N_dn =     -0.2440; <|rho_up-rho_dn|> =      0.2452
  Pulay mixing of updated and previous charge densities.

  Evaluating partitioned Hartree potential by multipole expansion.
  | Analytical far-field extrapolation by fixed multipoles:
  | Hartree multipole sum: apparent total charge =  -0.164168E-04
  Summing up the Hartree potential.
  Time summed over all CPUs for potential: real work        2.130 s, elapsed        2.184 s
  | RMS charge density error from multipole expansion :   0.822335E-02
  | Average real-space part of the electrostatic potential :      0.24627496 eV

  Integrating Hamiltonian matrix: batch-based integration.
  Time summed over all CPUs for integration: real work       13.534 s, elapsed       13.810 s

  Updating Kohn-Sham eigenvalues, eigenvectors, occupation numbers, and Fermi level.
  Solving generalized eigenproblem
  Determining occupation numbers for Kohn-Sham eigenstates.
  | Chemical potential (Fermi level) in eV                 : -.55239019E+01
  | Error in electron count due to remaining E_F inaccuracy: 0.21493918E-12
  | Maximum occupation number of highest empty state:  0.00E+00

  Current spin moment of the entire structure :
  | N = N_up - N_down (sum over all k points):         0.02703
  | S (sum over all k points)                :         0.01351

  What follows are estimated values for band gap, HOMO, LUMO, etc.
  | They are estimated on a discrete k-point grid and not necessarily exact.
  | For converged numbers, create a DOS and/or band structure plot on a denser k-grid.

  Highest occupied state (VBM) at     -5.53797501 eV (relative to internal zero)
  | Occupation number:      1.00000000
  | K-point:      38 at    0.333333    0.333333    0.000000 (in units of recip. lattice)
  | Spin channel:        1

  Lowest unoccupied state (CBM) at    -5.48357741 eV (relative to internal zero)
  | Occupation number:      0.00000000
  | K-point:      38 at    0.333333    0.333333    0.000000 (in units of recip. lattice)
  | Spin channel:        2

  ESTIMATED overall HOMO-LUMO gap:      0.05439760 eV between HOMO at k-point 38 and LUMO at k-point 38
  | This appears to be a direct band gap.
  However, the gap value is rather small. Since we use a finite k-point grid,
  this material is most likely metallic (in the sense that there are states
  at or near the Fermi level). A DOS and/or band structure plot is required
  for an unambiguous distinction.

  Total energy components:
  | Sum of eigenvalues            :         -44.25294770 Ha       -1204.18397519 eV
  | XC energy correction          :         -10.81526912 Ha        -294.29844638 eV
  | XC potential correction       :          13.89533869 Ha         378.11140383 eV
  | Free-atom electrostatic energy:         -33.32004492 Ha        -906.68455390 eV
  | Hartree energy correction     :          -1.73208981 Ha         -47.13256171 eV
  | van der Waals energy corr.    :           0.00000000 Ha           0.00000000 eV
  | Entropy correction            :          -0.00000000 Ha          -0.00000000 eV
  | ---------------------------
  | Total energy                  :         -76.22501286 Ha       -2074.18813335 eV
  | Total energy, T -> 0          :         -76.22501286 Ha       -2074.18813335 eV  <-- do not rely on this value for anything but (periodic) metals
  | Electronic free energy        :         -76.22501286 Ha       -2074.18813335 eV

  Derived energy quantities:
  | Kinetic energy                :          75.95609190 Ha        2066.87042183 eV
  | Electrostatic energy          :        -141.36583564 Ha       -3846.76010879 eV
  | Energy correction for multipole
  | error in Hartree potential    :          -0.01145613 Ha          -0.31173709 eV
  | Sum of eigenvalues per atom                           :        -602.09198759 eV
  | Total energy (T->0) per atom                          :       -1037.09406667 eV  <-- do not rely on this value for anything but (periodic) metals
  | Electronic free energy per atom                       :       -1037.09406667 eV

  Self-consistency convergence accuracy:
  | Change of charge/spin density : 0.1212E-01 0.3045E-01
  | Change of sum of eigenvalues  : -.2744E+01 eV
  | Change of total energy        : -.2627E-01 eV

  End self-consistency iteration #     4       :  max(cpu_time)    wall_clock(cpu1)
  | Time for this iteration                    :        5.548 s           5.561 s
  | Charge density update                      :        3.293 s           3.300 s
  | Density mixing & preconditioning           :        0.195 s           0.196 s
  | Hartree multipole update                   :        0.002 s           0.002 s
  | Hartree multipole summation                :        0.277 s           0.278 s
  | Integration                                :        1.728 s           1.732 s
  | Solution of K.-S. eqns.                    :        0.050 s           0.051 s
  | Total energy evaluation                    :        0.000 s           0.001 s
------------------------------------------------------------

------------------------------------------------------------
          Begin self-consistency iteration #    5

  Date     :  20220221, Time     :  152001.232
------------------------------------------------------------
  Evaluating new KS density using the density matrix
  Evaluating density matrix
  Evaluating density matrix
  Time summed over all CPUs for getting density from density matrix: real work       25.883 s, elapsed       26.422 s
  Integration grid: deviation in total charge (<rho> - N_e) =  -1.586518E-05
  | <rho_up-rho_dn> = N_up-N_dn =      0.0121; <|rho_up-rho_dn|> =      0.0352
  Pulay mixing of updated and previous charge densities.

  Evaluating partitioned Hartree potential by multipole expansion.
  | Analytical far-field extrapolation by fixed multipoles:
  | Hartree multipole sum: apparent total charge =  -0.412283E-05
  Summing up the Hartree potential.
  Time summed over all CPUs for potential: real work        2.130 s, elapsed        2.185 s
  | RMS charge density error from multipole expansion :   0.812693E-02
  | Average real-space part of the electrostatic potential :      0.24501279 eV

  Integrating Hamiltonian matrix: batch-based integration.
  Time summed over all CPUs for integration: real work       13.433 s, elapsed       13.691 s

  Updating Kohn-Sham eigenvalues, eigenvectors, occupation numbers, and Fermi level.
  Solving generalized eigenproblem
  Determining occupation numbers for Kohn-Sham eigenstates.
  | Chemical potential (Fermi level) in eV                 : -.54722451E+01
  | Error in electron count due to remaining E_F inaccuracy: 0.21493918E-12
  | Maximum occupation number of highest empty state:  0.00E+00

  Current spin moment of the entire structure :
  | N = N_up - N_down (sum over all k points):         0.02703
  | S (sum over all k points)                :         0.01351

  What follows are estimated values for band gap, HOMO, LUMO, etc.
  | They are estimated on a discrete k-point grid and not necessarily exact.
  | For converged numbers, create a DOS and/or band structure plot on a denser k-grid.

  Highest occupied state (VBM) at     -5.50066748 eV (relative to internal zero)
  | Occupation number:      1.00000000
  | K-point:      38 at    0.333333    0.333333    0.000000 (in units of recip. lattice)
  | Spin channel:        1

  Lowest unoccupied state (CBM) at    -5.45034900 eV (relative to internal zero)
  | Occupation number:      0.00000000
  | K-point:      38 at    0.333333    0.333333    0.000000 (in units of recip. lattice)
  | Spin channel:        2

  ESTIMATED overall HOMO-LUMO gap:      0.05031848 eV between HOMO at k-point 38 and LUMO at k-point 38
  | This appears to be a direct band gap.
  However, the gap value is rather small. Since we use a finite k-point grid,
  this material is most likely metallic (in the sense that there are states
  at or near the Fermi level). A DOS and/or band structure plot is required
  for an unambiguous distinction.

  Total energy components:
  | Sum of eigenvalues            :         -44.22840315 Ha       -1203.51608380 eV
  | XC energy correction          :         -10.81786283 Ha        -294.36902496 eV
  | XC potential correction       :          13.89859619 Ha         378.20004503 eV
  | Free-atom electrostatic energy:         -33.32004492 Ha        -906.68455390 eV
  | Hartree energy correction     :          -1.75730904 Ha         -47.81881200 eV
  | van der Waals energy corr.    :           0.00000000 Ha           0.00000000 eV
  | Entropy correction            :          -0.00000000 Ha          -0.00000000 eV
  | ---------------------------
  | Total energy                  :         -76.22502374 Ha       -2074.18842963 eV
  | Total energy, T -> 0          :         -76.22502374 Ha       -2074.18842963 eV  <-- do not rely on this value for anything but (periodic) metals
  | Electronic free energy        :         -76.22502374 Ha       -2074.18842963 eV

  Derived energy quantities:
  | Kinetic energy                :          75.98463635 Ha        2067.64715573 eV
  | Electrostatic energy          :        -141.39179726 Ha       -3847.46656041 eV
  | Energy correction for multipole
  | error in Hartree potential    :          -0.01137601 Ha          -0.30955707 eV
  | Sum of eigenvalues per atom                           :        -601.75804190 eV
  | Total energy (T->0) per atom                          :       -1037.09421482 eV  <-- do not rely on this value for anything but (periodic) metals
  | Electronic free energy per atom                       :       -1037.09421482 eV

  Self-consistency convergence accuracy:
  | Change of charge/spin density : 0.3439E-02 0.4128E-02
  | Change of sum of eigenvalues  : 0.6679E+00 eV
  | Change of total energy        : -.2963E-03 eV

  End self-consistency iteration #     5       :  max(cpu_time)    wall_clock(cpu1)
  | Time for this iteration                    :        5.549 s           5.562 s
  | Charge density update                      :        3.313 s           3.321 s
  | Density mixing & preconditioning           :        0.194 s           0.194 s
  | Hartree multipole update                   :        0.002 s           0.002 s
  | Hartree multipole summation                :        0.277 s           0.277 s
  | Integration                                :        1.711 s           1.716 s
  | Solution of K.-S. eqns.                    :        0.050 s           0.050 s
  | Total energy evaluation                    :        0.000 s           0.001 s
------------------------------------------------------------

------------------------------------------------------------
          Begin self-consistency iteration #    6

  Date     :  20220221, Time     :  152006.799
------------------------------------------------------------
  Evaluating new KS density using the density matrix
  Evaluating density matrix
  Evaluating density matrix
  Time summed over all CPUs for getting density from density matrix: real work       25.768 s, elapsed       26.319 s
  Integration grid: deviation in total charge (<rho> - N_e) =  -3.579463E-06
  | <rho_up-rho_dn> = N_up-N_dn =      0.0243; <|rho_up-rho_dn|> =      0.0277
  Pulay mixing of updated and previous charge densities.

  Evaluating partitioned Hartree potential by multipole expansion.
  | Analytical far-field extrapolation by fixed multipoles:
  | Hartree multipole sum: apparent total charge =   0.115236E-04
  Summing up the Hartree potential.
  Time summed over all CPUs for potential: real work        2.136 s, elapsed        2.189 s
  | RMS charge density error from multipole expansion :   0.812216E-02
  | Average real-space part of the electrostatic potential :      0.24535187 eV

  Integrating Hamiltonian matrix: batch-based integration.
  Time summed over all CPUs for integration: real work       13.369 s, elapsed       13.655 s

  Updating Kohn-Sham eigenvalues, eigenvectors, occupation numbers, and Fermi level.
  Solving generalized eigenproblem
  Determining occupation numbers for Kohn-Sham eigenstates.
  | Chemical potential (Fermi level) in eV                 : -.54561651E+01
  | Error in electron count due to remaining E_F inaccuracy: 0.21493918E-12
  | Maximum occupation number of highest empty state:  0.00E+00

  Current spin moment of the entire structure :
  | N = N_up - N_down (sum over all k points):         0.02703
  | S (sum over all k points)                :         0.01351

  What follows are estimated values for band gap, HOMO, LUMO, etc.
  | They are estimated on a discrete k-point grid and not necessarily exact.
  | For converged numbers, create a DOS and/or band structure plot on a denser k-grid.

  Highest occupied state (VBM) at     -5.48878957 eV (relative to internal zero)
  | Occupation number:      1.00000000
  | K-point:      38 at    0.333333    0.333333    0.000000 (in units of recip. lattice)
  | Spin channel:        1

  Lowest unoccupied state (CBM) at    -5.44005674 eV (relative to internal zero)
  | Occupation number:      0.00000000
  | K-point:      38 at    0.333333    0.333333    0.000000 (in units of recip. lattice)
  | Spin channel:        2

  ESTIMATED overall HOMO-LUMO gap:      0.04873282 eV between HOMO at k-point 38 and LUMO at k-point 38
  | This appears to be a direct band gap.
  However, the gap value is rather small. Since we use a finite k-point grid,
  this material is most likely metallic (in the sense that there are states
  at or near the Fermi level). A DOS and/or band structure plot is required
  for an unambiguous distinction.

  Total energy components:
  | Sum of eigenvalues            :         -44.22049289 Ha       -1203.30083471 eV
  | XC energy correction          :         -10.81862296 Ha        -294.38970901 eV
  | XC potential correction       :          13.89956194 Ha         378.22632432 eV
  | Free-atom electrostatic energy:         -33.32004492 Ha        -906.68455390 eV
  | Hartree energy correction     :          -1.76542377 Ha         -48.03962494 eV
  | van der Waals energy corr.    :           0.00000000 Ha           0.00000000 eV
  | Entropy correction            :          -0.00000000 Ha          -0.00000000 eV
  | ---------------------------
  | Total energy                  :         -76.22502259 Ha       -2074.18839824 eV
  | Total energy, T -> 0          :         -76.22502259 Ha       -2074.18839824 eV  <-- do not rely on this value for anything but (periodic) metals
  | Electronic free energy        :         -76.22502259 Ha       -2074.18839824 eV

  Derived energy quantities:
  | Kinetic energy                :          75.98982179 Ha        2067.78825875 eV
  | Electrostatic energy          :        -141.39622142 Ha       -3847.58694799 eV
  | Energy correction for multipole
  | error in Hartree potential    :          -0.01137834 Ha          -0.30962043 eV
  | Sum of eigenvalues per atom                           :        -601.65041736 eV
  | Total energy (T->0) per atom                          :       -1037.09419912 eV  <-- do not rely on this value for anything but (periodic) metals
  | Electronic free energy per atom                       :       -1037.09419912 eV

  Self-consistency convergence accuracy:
  | Change of charge/spin density : 0.7468E-03 0.4135E-03
  | Change of sum of eigenvalues  : 0.2152E+00 eV
  | Change of total energy        : 0.3139E-04 eV

  End self-consistency iteration #     6       :  max(cpu_time)    wall_clock(cpu1)
  | Time for this iteration                    :        5.545 s           5.558 s
  | Charge density update                      :        3.301 s           3.307 s
  | Density mixing & preconditioning           :        0.207 s           0.208 s
  | Hartree multipole update                   :        0.002 s           0.001 s
  | Hartree multipole summation                :        0.278 s           0.279 s
  | Integration                                :        1.707 s           1.711 s
  | Solution of K.-S. eqns.                    :        0.050 s           0.050 s
  | Total energy evaluation                    :        0.000 s           0.000 s
------------------------------------------------------------

------------------------------------------------------------
          Begin self-consistency iteration #    7

  Date     :  20220221, Time     :  152012.359
------------------------------------------------------------
  Evaluating new KS density using the density matrix
  Evaluating density matrix
  Evaluating density matrix
  Time summed over all CPUs for getting density from density matrix: real work       25.831 s, elapsed       26.357 s
  Integration grid: deviation in total charge (<rho> - N_e) =   1.206736E-05
  | <rho_up-rho_dn> = N_up-N_dn =      0.0274; <|rho_up-rho_dn|> =      0.0289
  Pulay mixing of updated and previous charge densities.

  Evaluating partitioned Hartree potential by multipole expansion.
  | Analytical far-field extrapolation by fixed multipoles:
  | Hartree multipole sum: apparent total charge =   0.120416E-04
  Summing up the Hartree potential.
  Time summed over all CPUs for potential: real work        2.137 s, elapsed        2.191 s
  | RMS charge density error from multipole expansion :   0.812188E-02
  | Average real-space part of the electrostatic potential :      0.24535136 eV

  Integrating Hamiltonian matrix: batch-based integration.
  Time summed over all CPUs for integration: real work       13.527 s, elapsed       13.790 s

  Updating Kohn-Sham eigenvalues, eigenvectors, occupation numbers, and Fermi level.
  Solving generalized eigenproblem
  Determining occupation numbers for Kohn-Sham eigenstates.
  | Chemical potential (Fermi level) in eV                 : -.54560665E+01
  | Error in electron count due to remaining E_F inaccuracy: 0.21493918E-12
  | Maximum occupation number of highest empty state:  0.00E+00

  Current spin moment of the entire structure :
  | N = N_up - N_down (sum over all k points):         0.02703
  | S (sum over all k points)                :         0.01351

  What follows are estimated values for band gap, HOMO, LUMO, etc.
  | They are estimated on a discrete k-point grid and not necessarily exact.
  | For converged numbers, create a DOS and/or band structure plot on a denser k-grid.

  Highest occupied state (VBM) at     -5.48872198 eV (relative to internal zero)
  | Occupation number:      1.00000000
  | K-point:      38 at    0.333333    0.333333    0.000000 (in units of recip. lattice)
  | Spin channel:        1

  Lowest unoccupied state (CBM) at    -5.43999480 eV (relative to internal zero)
  | Occupation number:      0.00000000
  | K-point:      38 at    0.333333    0.333333    0.000000 (in units of recip. lattice)
  | Spin channel:        2

  ESTIMATED overall HOMO-LUMO gap:      0.04872719 eV between HOMO at k-point 38 and LUMO at k-point 38
  | This appears to be a direct band gap.
  However, the gap value is rather small. Since we use a finite k-point grid,
  this material is most likely metallic (in the sense that there are states
  at or near the Fermi level). A DOS and/or band structure plot is required
  for an unambiguous distinction.

  Total energy components:
  | Sum of eigenvalues            :         -44.22044173 Ha       -1203.29944270 eV
  | XC energy correction          :         -10.81862833 Ha        -294.38985533 eV
  | XC potential correction       :          13.89956881 Ha         378.22651122 eV
  | Free-atom electrostatic energy:         -33.32004492 Ha        -906.68455390 eV
  | Hartree energy correction     :          -1.76547656 Ha         -48.04106157 eV
  | van der Waals energy corr.    :           0.00000000 Ha           0.00000000 eV
  | Entropy correction            :          -0.00000000 Ha          -0.00000000 eV
  | ---------------------------
  | Total energy                  :         -76.22502274 Ha       -2074.18840228 eV
  | Total energy, T -> 0          :         -76.22502274 Ha       -2074.18840228 eV  <-- do not rely on this value for anything but (periodic) metals
  | Electronic free energy        :         -76.22502274 Ha       -2074.18840228 eV

  Derived energy quantities:
  | Kinetic energy                :          75.98988264 Ha        2067.78991462 eV
  | Electrostatic energy          :        -141.39627705 Ha       -3847.58846157 eV
  | Energy correction for multipole
  | error in Hartree potential    :          -0.01137816 Ha          -0.30961546 eV
  | Sum of eigenvalues per atom                           :        -601.64972135 eV
  | Total energy (T->0) per atom                          :       -1037.09420114 eV  <-- do not rely on this value for anything but (periodic) metals
  | Electronic free energy per atom                       :       -1037.09420114 eV

  Self-consistency convergence accuracy:
  | Change of charge/spin density : 0.1442E-02 0.1915E-03
  | Change of sum of eigenvalues  : 0.1392E-02 eV
  | Change of total energy        : -.4036E-05 eV

  End self-consistency iteration #     7       :  max(cpu_time)    wall_clock(cpu1)
  | Time for this iteration                    :        5.572 s           5.585 s
  | Charge density update                      :        3.305 s           3.312 s
  | Density mixing & preconditioning           :        0.208 s           0.209 s
  | Hartree multipole update                   :        0.002 s           0.002 s
  | Hartree multipole summation                :        0.278 s           0.279 s
  | Integration                                :        1.726 s           1.730 s
  | Solution of K.-S. eqns.                    :        0.051 s           0.051 s
  | Total energy evaluation                    :        0.000 s           0.000 s
------------------------------------------------------------

------------------------------------------------------------
          Begin self-consistency iteration #    8

  Date     :  20220221, Time     :  152017.947
------------------------------------------------------------
  Evaluating new KS density using the density matrix
  Evaluating density matrix
  Evaluating density matrix
  Time summed over all CPUs for getting density from density matrix: real work       25.746 s, elapsed       26.306 s
  Integration grid: deviation in total charge (<rho> - N_e) =   1.258537E-05
  | <rho_up-rho_dn> = N_up-N_dn =      0.0275; <|rho_up-rho_dn|> =      0.0289
  Pulay mixing of updated and previous charge densities.

  Evaluating partitioned Hartree potential by multipole expansion.
  | Analytical far-field extrapolation by fixed multipoles:
  | Hartree multipole sum: apparent total charge =   0.138962E-04
  Summing up the Hartree potential.
  Time summed over all CPUs for potential: real work        2.132 s, elapsed        2.185 s
  | RMS charge density error from multipole expansion :   0.811475E-02
  | Average real-space part of the electrostatic potential :      0.24534550 eV

  Integrating Hamiltonian matrix: batch-based integration.
  Time summed over all CPUs for integration: real work       13.205 s, elapsed       13.476 s

  Updating Kohn-Sham eigenvalues, eigenvectors, occupation numbers, and Fermi level.
  Solving generalized eigenproblem
  Determining occupation numbers for Kohn-Sham eigenstates.
  | Chemical potential (Fermi level) in eV                 : -.54542187E+01
  | Error in electron count due to remaining E_F inaccuracy: 0.21493918E-12
  | Maximum occupation number of highest empty state:  0.00E+00

  Current spin moment of the entire structure :
  | N = N_up - N_down (sum over all k points):         0.02703
  | S (sum over all k points)                :         0.01351

  What follows are estimated values for band gap, HOMO, LUMO, etc.
  | They are estimated on a discrete k-point grid and not necessarily exact.
  | For converged numbers, create a DOS and/or band structure plot on a denser k-grid.

  Highest occupied state (VBM) at     -5.48750389 eV (relative to internal zero)
  | Occupation number:      1.00000000
  | K-point:      38 at    0.333333    0.333333    0.000000 (in units of recip. lattice)
  | Spin channel:        1

  Lowest unoccupied state (CBM) at    -5.43872930 eV (relative to internal zero)
  | Occupation number:      0.00000000
  | K-point:      38 at    0.333333    0.333333    0.000000 (in units of recip. lattice)
  | Spin channel:        2

  ESTIMATED overall HOMO-LUMO gap:      0.04877458 eV between HOMO at k-point 38 and LUMO at k-point 38
  | This appears to be a direct band gap.
  However, the gap value is rather small. Since we use a finite k-point grid,
  this material is most likely metallic (in the sense that there are states
  at or near the Fermi level). A DOS and/or band structure plot is required
  for an unambiguous distinction.

  Total energy components:
  | Sum of eigenvalues            :         -44.21953614 Ha       -1203.27480024 eV
  | XC energy correction          :         -10.81872761 Ha        -294.39255681 eV
  | XC potential correction       :          13.89969621 Ha         378.22997804 eV
  | Free-atom electrostatic energy:         -33.32004492 Ha        -906.68455390 eV
  | Hartree energy correction     :          -1.76640974 Ha         -48.06645464 eV
  | van der Waals energy corr.    :           0.00000000 Ha           0.00000000 eV
  | Entropy correction            :          -0.00000000 Ha          -0.00000000 eV
  | ---------------------------
  | Total energy                  :         -76.22502220 Ha       -2074.18838755 eV
  | Total energy, T -> 0          :         -76.22502220 Ha       -2074.18838755 eV  <-- do not rely on this value for anything but (periodic) metals
  | Electronic free energy        :         -76.22502220 Ha       -2074.18838755 eV

  Derived energy quantities:
  | Kinetic energy                :          75.99114840 Ha        2067.82435773 eV
  | Electrostatic energy          :        -141.39744299 Ha       -3847.62018847 eV
  | Energy correction for multipole
  | error in Hartree potential    :          -0.01137296 Ha          -0.30947389 eV
  | Sum of eigenvalues per atom                           :        -601.63740012 eV
  | Total energy (T->0) per atom                          :       -1037.09419378 eV  <-- do not rely on this value for anything but (periodic) metals
  | Electronic free energy per atom                       :       -1037.09419378 eV

  Self-consistency convergence accuracy:
  | Change of charge/spin density : 0.2067E-02 0.1890E-03
  | Change of sum of eigenvalues  : 0.2464E-01 eV
  | Change of total energy        : 0.1472E-04 eV

  End self-consistency iteration #     8       :  max(cpu_time)    wall_clock(cpu1)
  | Time for this iteration                    :        5.520 s           5.532 s
  | Charge density update                      :        3.300 s           3.306 s
  | Density mixing & preconditioning           :        0.205 s           0.205 s
  | Hartree multipole update                   :        0.001 s           0.001 s
  | Hartree multipole summation                :        0.277 s           0.278 s
  | Integration                                :        1.685 s           1.689 s
  | Solution of K.-S. eqns.                    :        0.050 s           0.050 s
  | Total energy evaluation                    :        0.000 s           0.000 s
------------------------------------------------------------

------------------------------------------------------------
          Begin self-consistency iteration #    9

  Date     :  20220221, Time     :  152023.480
------------------------------------------------------------
  Evaluating new KS density using the density matrix
  Evaluating density matrix
  Evaluating density matrix
  Time summed over all CPUs for getting density from density matrix: real work       25.765 s, elapsed       26.296 s
  Integration grid: deviation in total charge (<rho> - N_e) =   1.443961E-05
  | <rho_up-rho_dn> = N_up-N_dn =      0.0278; <|rho_up-rho_dn|> =      0.0287
  Pulay mixing of updated and previous charge densities.

  Evaluating partitioned Hartree potential by multipole expansion.
  | Analytical far-field extrapolation by fixed multipoles:
  | Hartree multipole sum: apparent total charge =   0.327936E-05
  Summing up the Hartree potential.
  Time summed over all CPUs for potential: real work        2.135 s, elapsed        2.189 s
  | RMS charge density error from multipole expansion :   0.811379E-02
  | Average real-space part of the electrostatic potential :      0.24537813 eV

  Integrating Hamiltonian matrix: batch-based integration.
  Time summed over all CPUs for integration: real work       13.540 s, elapsed       13.813 s

  Updating Kohn-Sham eigenvalues, eigenvectors, occupation numbers, and Fermi level.
  Solving generalized eigenproblem
  Determining occupation numbers for Kohn-Sham eigenstates.
  | Chemical potential (Fermi level) in eV                 : -.54547929E+01
[...]
  this material is most likely metallic (in the sense that there are states
  at or near the Fermi level). A DOS and/or band structure plot is required
  for an unambiguous distinction.

  Total energy components:
  | Sum of eigenvalues            :         -44.21973183 Ha       -1203.28012536 eV
  | XC energy correction          :         -10.81870616 Ha        -294.39197317 eV
  | XC potential correction       :          13.89967128 Ha         378.22929967 eV
  | Free-atom electrostatic energy:         -33.32004492 Ha        -906.68455390 eV
  | Hartree energy correction     :          -1.76621050 Ha         -48.06103299 eV
  | van der Waals energy corr.    :           0.00000000 Ha           0.00000000 eV
  | Entropy correction            :          -0.00000000 Ha          -0.00000000 eV
  | ---------------------------
  | Total energy                  :         -76.22502213 Ha       -2074.18838576 eV
  | Total energy, T -> 0          :         -76.22502213 Ha       -2074.18838576 eV  <-- do not rely on this value for anything but (periodic) metals
  | Electronic free energy        :         -76.22502213 Ha       -2074.18838576 eV

  Derived energy quantities:
  | Kinetic energy                :          75.99099375 Ha        2067.82014935 eV
  | Electrostatic energy          :        -141.39730972 Ha       -3847.61656193 eV
  | Energy correction for multipole
  | error in Hartree potential    :          -0.01137154 Ha          -0.30943526 eV
  | Sum of eigenvalues per atom                           :        -601.64006268 eV
  | Total energy (T->0) per atom                          :       -1037.09419288 eV  <-- do not rely on this value for anything but (periodic) metals
  | Electronic free energy per atom                       :       -1037.09419288 eV

  Self-consistency convergence accuracy:
  | Change of charge/spin density : 0.2005E-06 0.9222E-07
  | Change of sum of eigenvalues  : -.1610E-04 eV
  | Change of total energy        : 0.1700E-07 eV

  End self-consistency iteration #    14       :  max(cpu_time)    wall_clock(cpu1)
  | Time for this iteration                    :        5.577 s           5.590 s
  | Charge density update                      :        3.314 s           3.321 s
  | Density mixing & preconditioning           :        0.205 s           0.205 s
  | Hartree multipole update                   :        0.002 s           0.002 s
  | Hartree multipole summation                :        0.278 s           0.278 s
  | Integration                                :        1.728 s           1.732 s
  | Solution of K.-S. eqns.                    :        0.050 s           0.050 s
  | Total energy evaluation                    :        0.000 s           0.001 s
------------------------------------------------------------

------------------------------------------------------------
          Begin self-consistency iteration #   15

  Date     :  20220221, Time     :  152056.952
------------------------------------------------------------
  Evaluating new KS density using the density matrix
  Evaluating density matrix
  Evaluating density matrix
  Time summed over all CPUs for getting density from density matrix: real work       25.836 s, elapsed       26.391 s
  Integration grid: deviation in total charge (<rho> - N_e) =  -5.960899E-09
  | <rho_up-rho_dn> = N_up-N_dn =      0.0278; <|rho_up-rho_dn|> =      0.0287
  Pulay mixing of updated and previous charge densities.

  Evaluating partitioned Hartree potential by multipole expansion.
  | Analytical far-field extrapolation by fixed multipoles:
  | Hartree multipole sum: apparent total charge =  -0.551611E-06
  Summing up the Hartree potential.
  Time summed over all CPUs for potential: real work        2.134 s, elapsed        2.186 s
  | RMS charge density error from multipole expansion :   0.811338E-02
  | Average real-space part of the electrostatic potential :      0.24538935 eV

  Integrating Hamiltonian matrix: batch-based integration.
  Time summed over all CPUs for integration: real work       13.226 s, elapsed       13.507 s

  Updating Kohn-Sham eigenvalues, eigenvectors, occupation numbers, and Fermi level.
  Solving generalized eigenproblem
  Determining occupation numbers for Kohn-Sham eigenstates.
  | Chemical potential (Fermi level) in eV                 : -.54546789E+01
  | Error in electron count due to remaining E_F inaccuracy: 0.21493918E-12
  | Maximum occupation number of highest empty state:  0.00E+00

  Current spin moment of the entire structure :
  | N = N_up - N_down (sum over all k points):         0.02703
  | S (sum over all k points)                :         0.01351

  What follows are estimated values for band gap, HOMO, LUMO, etc.
  | They are estimated on a discrete k-point grid and not necessarily exact.
  | For converged numbers, create a DOS and/or band structure plot on a denser k-grid.

  Highest occupied state (VBM) at     -5.48782565 eV (relative to internal zero)
  | Occupation number:      1.00000000
  | K-point:      38 at    0.333333    0.333333    0.000000 (in units of recip. lattice)
  | Spin channel:        1

  Lowest unoccupied state (CBM) at    -5.43904657 eV (relative to internal zero)
  | Occupation number:      0.00000000
  | K-point:      38 at    0.333333    0.333333    0.000000 (in units of recip. lattice)
  | Spin channel:        2

  ESTIMATED overall HOMO-LUMO gap:      0.04877908 eV between HOMO at k-point 38 and LUMO at k-point 38
  | This appears to be a direct band gap.
  However, the gap value is rather small. Since we use a finite k-point grid,
  this material is most likely metallic (in the sense that there are states
  at or near the Fermi level). A DOS and/or band structure plot is required
  for an unambiguous distinction.

  Total energy components:
  | Sum of eigenvalues            :         -44.21973183 Ha       -1203.28012522 eV
  | XC energy correction          :         -10.81870616 Ha        -294.39197315 eV
  | XC potential correction       :          13.89967128 Ha         378.22929964 eV
  | Free-atom electrostatic energy:         -33.32004492 Ha        -906.68455390 eV
  | Hartree energy correction     :          -1.76621050 Ha         -48.06103313 eV
  | van der Waals energy corr.    :           0.00000000 Ha           0.00000000 eV
  | Entropy correction            :          -0.00000000 Ha          -0.00000000 eV
  | ---------------------------
  | Total energy                  :         -76.22502213 Ha       -2074.18838576 eV
  | Total energy, T -> 0          :         -76.22502213 Ha       -2074.18838576 eV  <-- do not rely on this value for anything but (periodic) metals
  | Electronic free energy        :         -76.22502213 Ha       -2074.18838576 eV

  Derived energy quantities:
  | Kinetic energy                :          75.99099373 Ha        2067.82014881 eV
  | Electrostatic energy          :        -141.39730970 Ha       -3847.61656142 eV
  | Energy correction for multipole
  | error in Hartree potential    :          -0.01137154 Ha          -0.30943526 eV
  | Sum of eigenvalues per atom                           :        -601.64006261 eV
  | Total energy (T->0) per atom                          :       -1037.09419288 eV  <-- do not rely on this value for anything but (periodic) metals
  | Electronic free energy per atom                       :       -1037.09419288 eV

  Self-consistency convergence accuracy:
  | Change of charge/spin density : 0.4012E-07 0.2906E-06
  | Change of sum of eigenvalues  : 0.1407E-06 eV
  | Change of total energy        : 0.3685E-09 eV

  Preliminary charge convergence reached. Turning off preconditioner.

  Writing Kohn-Sham eigenvalues.

  Spin-up eigenvalues:
  K-point:       1 at    0.000000    0.000000    0.000000 (in units of recip. lattice)

  State    Occupation    Eigenvalue [Ha]    Eigenvalue [eV]
      1       1.00000          -9.979208         -271.54805
      2       1.00000          -9.978245         -271.52186
      3       1.00000          -0.920821          -25.05682
      4       1.00000          -0.483302          -13.15131
      5       1.00000          -0.313398           -8.52799
      6       1.00000          -0.313395           -8.52792
      7       0.00000           0.019815            0.53919
      8       0.00000           0.067818            1.84543
      9       0.00000           0.106286            2.89219
     10       0.00000           0.106292            2.89235
     11       0.00000           0.221561            6.02898

  Spin-down eigenvalues:
  K-point:       1 at    0.000000    0.000000    0.000000 (in units of recip. lattice)

  State    Occupation    Eigenvalue [Ha]    Eigenvalue [eV]
      1       1.00000          -9.978986         -271.54203
      2       1.00000          -9.978024         -271.51584
      3       1.00000          -0.920144          -25.03838
      4       1.00000          -0.481783          -13.10997
      5       1.00000          -0.313060           -8.51879
      6       1.00000          -0.313057           -8.51871
      7       0.00000           0.020401            0.55513
      8       0.00000           0.068402            1.86131
      9       0.00000           0.106567            2.89984
     10       0.00000           0.106573            2.90001
     11       0.00000           0.223890            6.09237

  Current spin moment of the entire structure :
  | N = N_up - N_down (sum over all k points):         0.02703
  | S (sum over all k points)                :         0.01351

  What follows are estimated values for band gap, HOMO, LUMO, etc.
  | They are estimated on a discrete k-point grid and not necessarily exact.
  | For converged numbers, create a DOS and/or band structure plot on a denser k-grid.

  Highest occupied state (VBM) at     -5.48782565 eV (relative to internal zero)
  | Occupation number:      1.00000000
  | K-point:      38 at    0.333333    0.333333    0.000000 (in units of recip. lattice)
  | Spin channel:        1

  Lowest unoccupied state (CBM) at    -5.43904657 eV (relative to internal zero)
  | Occupation number:      0.00000000
  | K-point:      38 at    0.333333    0.333333    0.000000 (in units of recip. lattice)
  | Spin channel:        2

  ESTIMATED overall HOMO-LUMO gap:      0.04877908 eV between HOMO at k-point 38 and LUMO at k-point 38
  | This appears to be a direct band gap.
  However, the gap value is rather small. Since we use a finite k-point grid,
  this material is most likely metallic (in the sense that there are states
  at or near the Fermi level). A DOS and/or band structure plot is required
  for an unambiguous distinction.

  Self-consistency cycle converged.

  End self-consistency iteration #    15       :  max(cpu_time)    wall_clock(cpu1)
  | Time for this iteration                    :        5.533 s           5.547 s
  | Charge density update                      :        3.310 s           3.316 s
  | Density mixing                             :        0.205 s           0.205 s
  | Hartree multipole update                   :        0.001 s           0.001 s
  | Hartree multipole summation                :        0.277 s           0.277 s
  | Integration                                :        1.688 s           1.693 s
  | Solution of K.-S. eqns.                    :        0.050 s           0.050 s
  | Total energy evaluation                    :        0.000 s           0.000 s
------------------------------------------------------------
  Obtaining max. number of non-zero basis functions in each batch .
  Evaluating KS electron density on previously omitted grid points, using the density matrix.
  Evaluating density matrix
  Evaluating density matrix
  Evaluating non-empirical van der Waals correction (Tkatchenko/Scheffler 2009).
  Performing Hirshfeld analysis of fragment charges and moments.
  ----------------------------------------------------------------------
  | Atom     1: C
  |   Hirshfeld charge        :     -0.00003333
  |   Free atom volume        :     38.37861207
  |   Hirshfeld volume        :     32.34422533
  |   Hirshfeld spin moment   :      0.01388972
  |   Hirshfeld dipole vector :     -0.00004851      -0.00000015       0.00000001
  |   Hirshfeld dipole moment :      0.00004851
  |   Hirshfeld second moments:      0.08556227      -0.00000029       0.00000000
  |                                 -0.00000029       0.08538287       0.00000000
  |                                  0.00000000       0.00000000       0.25111179
  ----------------------------------------------------------------------
  | Atom     2: C
  |   Hirshfeld charge        :     -0.00003333
  |   Free atom volume        :     38.37861207
  |   Hirshfeld volume        :     32.34422533
  |   Hirshfeld spin moment   :      0.01388972
  |   Hirshfeld dipole vector :      0.00004851       0.00000015      -0.00000001
  |   Hirshfeld dipole moment :      0.00004851
  |   Hirshfeld second moments:      0.08556227      -0.00000029       0.00000000
  |                                 -0.00000029       0.08538287      -0.00000000
  |                                  0.00000000      -0.00000000       0.25111179
  ----------------------------------------------------------------------

  Converging periodic supercell size for vdw calculation.

  Total energy components:
  | Sum of eigenvalues            :         -44.21973183 Ha       -1203.28012522 eV
  | XC energy correction          :         -10.81870616 Ha        -294.39197315 eV
  | XC potential correction       :          13.89967128 Ha         378.22929964 eV
  | Free-atom electrostatic energy:         -33.32004492 Ha        -906.68455390 eV
  | Hartree energy correction     :          -1.76621050 Ha         -48.06103313 eV
  | van der Waals energy corr.    :          -0.00381871 Ha          -0.10391235 eV
  | Entropy correction            :          -0.00000000 Ha          -0.00000000 eV
  | ---------------------------
  | Total energy                  :         -76.22884084 Ha       -2074.29229811 eV
  | Total energy, T -> 0          :         -76.22884084 Ha       -2074.29229811 eV  <-- do not rely on this value for anything but (periodic) metals
  | Electronic free energy        :         -76.22884084 Ha       -2074.29229811 eV

  Derived energy quantities:
  | Kinetic energy                :          75.99099373 Ha        2067.82014881 eV
  | Electrostatic energy          :        -141.39730970 Ha       -3847.61656142 eV
  | Energy correction for multipole
  | error in Hartree potential    :          -0.01137154 Ha          -0.30943526 eV
  | Sum of eigenvalues per atom                           :        -601.64006261 eV
  | Total energy (T->0) per atom                          :       -1037.14614906 eV  <-- do not rely on this value for anything but (periodic) metals
  | Electronic free energy per atom                       :       -1037.14614906 eV
  Timings for VdW correction (Tkatchenko-Scheffler 2009 or later):
  | CPU time:        1.308 s, Wall clock time:        1.311 s.

  Energy and forces in a compact form:
  | Total energy uncorrected      :         -0.207429229811233E+04 eV
  | Total energy corrected        :         -0.207429229811233E+04 eV  <-- do not rely on this value for anything but (periodic) metals
  | Electronic free energy        :         -0.207429229811233E+04 eV

  ------------------------------------ 
  Start decomposition of the XC Energy 
  ------------------------------------ 
  Hartree-Fock part   :          0.000000000 Ha              0.000000000 eV
  ------------------------------------ 
  X Energy            :        -10.398836078 Ha           -282.966726857 eV
  C Energy GGA        :         -0.419870084 Ha            -11.425246288 eV
  Total XC Energy     :        -10.818706161 Ha           -294.391973145 eV
  LDA X and C from self-consistent density 
  X Energy LDA        :         -9.434390273 Ha           -256.722821253 eV
  C Energy LDA        :         -0.796141509 Ha            -21.664112713 eV
  ------------------------------------ 
  End decomposition of the XC Energy 
  ------------------------------------ 
  Post-scf processing of Kohn-Sham eigenvalues on a denser k-point grid.
  | Using dos_kgrid_factors to calculate post-scf total density of states.
  | Electron chemical potential:    -5.454678883605 eV.
  Integrating Hamiltonian matrix: batch-based integration.
  Time summed over all CPUs for integration: real work       13.489 s, elapsed       13.760 s
  Processing batch of k-points:     1     1     1
  Processing batch of k-points:     1     2     1
  Processing batch of k-points:     2     1     1
  Processing batch of k-points:     2     2     1
  | writing perturbative DOS (shifted by electron chemical potential) to file KS_dos_total.dat
  | writing perturbative DOS (raw data) to file KS_dos_total_raw.dat

------------------------------------------------------------------------------
  Final output of selected total energy values:

  The following output summarizes some interesting total energy values
  at the end of a run (AFTER all relaxation, molecular dynamics, etc.).

  | Total energy of the DFT / Hartree-Fock s.c.f. calculation      :          -2074.292298112 eV
  | Final zero-broadening corrected energy (caution - metals only) :          -2074.292298112 eV
  | For reference only, the value of 1 Hartree used in FHI-aims is :             27.211384500 eV

  Before relying on these values, please be sure to understand exactly which
  total energy value is referred to by a given number. Different objects may
  all carry the same name 'total energy'. Definitions:

  Total energy of the DFT / Hartree-Fock s.c.f. calculation:
  | Note that this energy does not include ANY quantities calculated after the
  | s.c.f. cycle, in particular not ANY RPA, MP2, etc. many-body perturbation terms.

  Final zero-broadening corrected energy:
  | For metallic systems only, a broadening of the occupation numbers at the Fermi
  | level can be extrapolated back to zero broadening by an electron-gas inspired
  | formula. For all systems that are not real metals, this value can be
  | meaningless and should be avoided.

------------------------------------------------------------------------------

------------------------------------------------------------
          Leaving FHI-aims.
          Date     :  20220221, Time     :  152106.439

          Computational steps:
          | Number of self-consistency cycles          :           15

          Detailed time accounting                     :  max(cpu_time)    wall_clock(cpu1)
          | Total time                                 :       90.591 s          90.917 s
          | Preparation time                           :        0.160 s           0.162 s
          | Grid partitioning                          :        0.056 s           0.057 s
          | Preloading free-atom quantities on grid    :        0.005 s           0.005 s
          | Free-atom superposition energy             :        0.031 s           0.031 s
          | Total time for integrations                :       28.338 s          28.408 s
          | Total time for solution of K.-S. equations :        0.855 s           0.859 s
          | Total time for density update              :       49.595 s          49.698 s
          | Total time for mixing & preconditioning    :        3.051 s           3.059 s
          | Total time for Hartree multipole update    :        0.023 s           0.024 s
          | Total time for Hartree multipole sum       :        4.158 s           4.166 s
          | Total time for total energy evaluation     :        0.004 s           0.009 s
          | Total time for scaled ZORA corrections     :        0.000 s           0.000 s
          | Total time for vdW correction              :        1.308 s           1.311 s

          Have a nice day.
------------------------------------------------------------
