  MPI-parallelism will be employed.
------------------------------------------------------------
          Invoking FHI-aims ...
          Version 052014
          Git rev. (modified): 096c982 Merge branch master of fhiaims:/pub/localo[...]
          Compiled on 2016/12/16 at 15:22:01 on host login02.hpc.iitd.ac.in.

          When using FHI-aims, please cite the following reference:

          Volker Blum, Ralf Gehrke, Felix Hanke, Paula Havu,
          Ville Havu, Xinguo Ren, Karsten Reuter, and Matthias Scheffler,
          'Ab Initio Molecular Simulations with Numeric Atom-Centered Orbitals: FHI-aims',
          Computer Physics Communications 180, 2175-2196 (2009)

          For any questions about FHI-aims, please visit the aimsclub website
          with its forums and wiki. Contributions to both the forums and the
          wiki are warmly encouraged - they are for you, and everyone is welcome there.

------------------------------------------------------------

  Date     :  20220120, Time     :  153403.214
  Time zero on CPU 1             :   0.120850000000000E-01  s.
  Internal wall clock time zero  :           411924843.214  s.

  Using        8 parallel tasks.
  Task        0 on host csky019 reporting.
  Task        1 on host csky019 reporting.
  Task        2 on host csky019 reporting.
  Task        3 on host csky019 reporting.
  Task        4 on host csky019 reporting.
  Task        5 on host csky019 reporting.
  Task        6 on host csky019 reporting.
  Task        7 on host csky019 reporting.

  Performing system and environment tests:
  | Environment variable OMP_NUM_THREADS correctly set to 1.
  | Stacksize not measured: no C compiler
  | Checking for scalapack...
  | Testing pdtran()...
  | All pdtran() tests passed.

  Obtaining array dimensions for all initial allocations:
  
  -----------------------------------------------------------------------
  Parsing control.in (first pass over file, find array dimensions only).
  The contents of control.in will be repeated verbatim below
  unless switched off by setting 'verbatim_writeout .false.' .
  in the first line of control.in .
  -----------------------------------------------------------------------
  
    xc               pbe
    spin             collinear
    default_initial_moment hund
    relativistic     atomic_zora scalar 1e-9
    occupation_type  gaussian 0.001
    charge        0
    vdw_correction_hirshfeld
    KS_method        scalapack_fast
    mixer            pulay
    charge_mix_param  0.4
    spin_mix_param    0.6
    sc_accuracy_rho  1E-4
    sc_accuracy_eev  1E-5
    sc_accuracy_etot 1E-5
    sc_iter_limit    100
    empty_states     10
  ################################################################################
  #
  #  FHI-aims code project
  # Volker Blum, Fritz Haber Institute Berlin, 2009
  #
  #  Suggested "tight" defaults for H atom (to be pasted into control.in file)
  #
  ################################################################################
    species        H
  #     global species definitions
      nucleus             1
      mass                1.00794
  #
      l_hartree           6
  #
      cut_pot             4.0  2.0  1.0
      basis_dep_cutoff    1e-4
  #
      radial_base         24 7.0
      radial_multiplier   2
      angular_grids       specified
        division   0.1930   50
        division   0.3175  110
        division   0.4293  194
        division   0.5066  302
        division   0.5626  434
  #      division   0.5922  590
  #      division   0.6227  974
  #      division   0.6868 1202
  #      outer_grid  770
        outer_grid  434
  ################################################################################
  #
  #  Definition of "minimal" basis
  #
  ################################################################################
  #     valence basis states
      valence      1  s   1.
  #     ion occupancy
      ion_occ      1  s   0.5
  ################################################################################
  #
  #  Suggested additional basis functions. For production calculations,
  #  uncomment them one after another (the most important basis functions are
  #  listed first).
  #
  #  Basis constructed for dimers: 0.5 A, 0.7 A, 1.0 A, 1.5 A, 2.5 A
  #
  ################################################################################
  #  "First tier" - improvements: -1014.90 meV to -62.69 meV
       hydro 2 s 2.1
       hydro 2 p 3.5
  #  "Second tier" - improvements: -12.89 meV to -1.83 meV
       hydro 1 s 0.85
       hydro 2 p 3.7
       hydro 2 s 1.2
       hydro 3 d 7
  #  "Third tier" - improvements: -0.25 meV to -0.12 meV
  #     hydro 4 f 11.2
  #     hydro 3 p 4.8
  #     hydro 4 d 9
  #     hydro 3 s 3.2
  ################################################################################
  #
  # For methods that use the localized form of the "resolution of identity" for
  # the two-electron Coulomb operator (RI_method LVL), particularly Hartree-Fock and
  # hybrid density functional calculations, the highest accuracy can be obtained by
  # uncommenting the line beginning with "for_aux"  below, thus adding an extra g radial
  # function to the construction of the product basis set for the expansion.
  # See Ref. New J. Phys. 17, 093020 (2015) for more information, particularly Figs. 1 and 6.
  #
  ################################################################################
  #
  # for_aux hydro 5 g 6.0
  
  -----------------------------------------------------------------------
  Completed first pass over input file control.in .
  -----------------------------------------------------------------------
  
  
  -----------------------------------------------------------------------
  Parsing geometry.in (first pass over file, find array dimensions only).
  The contents of geometry.in will be repeated verbatim below
  unless switched off by setting 'verbatim_writeout .false.' .
  in the first line of geometry.in .
  -----------------------------------------------------------------------
  
  atom 0 0 0 H
  atom 0 0 0.78 H
  
  -----------------------------------------------------------------------
  Completed first pass over input file geometry.in .
  -----------------------------------------------------------------------
  

  Basic array size parameters:
  | Number of species                 :        1
  | Number of atoms                   :        2
  | Max. basis fn. angular momentum   :        2
  | Max. atomic/ionic basis occupied n:        1
  | Max. number of basis fn. types    :        2
  | Max. radial fns per species/type  :        6
  | Max. logarithmic grid size        :     1131
  | Max. radial integration grid size :       49
  | Max. angular integration grid size:      434
  | Max. angular grid division number :        8
  | Radial grid for Hartree potential :     1131
  | Number of spin channels           :        2

------------------------------------------------------------
          Reading file control.in.
------------------------------------------------------------
  XC: Using PBE gradient-corrected functionals.
  Spin treatment: Spin density functional theory - collinear spins.
  Initial spin moment per atom set according to Hund's rules.
  Scalar relativistic treatment of kinetic energy: on-site free-atom approximation to ZORA.
  Occupation type: Gaussian broadening, width =   0.100000E-02 eV.
  Charge =   0.000000E+00: Neutral system requested explicitly.
  Using non-empirical van der Waals correction (Hirshfeld partitioning):
  Kohn-Sham eigenvalues and eigenfunctions calculated by the ELPA eigensolver library.
  Using pulay charge density mixing.
  Charge density mixing - mixing parameter:     0.4000
  Spin density mixing - mixing parameter:     0.6000
  Convergence accuracy of self-consistent charge density: 0.1000E-03
  Convergence accuracy of sum of eigenvalues: 0.1000E-04
  Convergence accuracy of total energy: 0.1000E-04
  Maximum number of s.-c. iterations  :   100
  Number of empty states per atom:       10
 
  Reading configuration options for species H                   .
  | Found nuclear charge :   1.0000
  | Found atomic mass :    1.00794000000000      amu
  | Found l_max for Hartree potential  :   6
  | Found cutoff potl. onset [A], width [A], scale factor :    4.00000    2.00000    1.00000
  | Threshold for basis-dependent cutoff potential is   0.100000E-03
  | Found data for basic radial integration grid :    24 points, outermost radius =    7.000 A
  | Found multiplier for basic radial grid :   2
  | Found angular grid specification: user-specified.
  | Specified grid contains     6 separate shells.
  | Check grid settings after all constraints further below.
  | Found free-atom valence shell :  1 s   1.000
  | No ionic wave fns used. Skipping ion_occ.
  | Found hydrogenic basis function :  2 s   2.100
  | Found hydrogenic basis function :  2 p   3.500
  | Found hydrogenic basis function :  1 s   0.850
  | Found hydrogenic basis function :  2 p   3.700
  | Found hydrogenic basis function :  2 s   1.200
  | Found hydrogenic basis function :  3 d   7.000
  Species H                   : Missing cutoff potential type.
  Defaulting to exp(1/x)/(1-x)^2 type cutoff potential.
  Species H : No 'logarithmic' tag. Using default grid for free atom:
  | Default logarithmic grid data [bohr] : 0.1000E-03 0.1000E+03 0.1012E+01
  Species H : On-site basis accuracy parameter (for Gram-Schmidt orthonormalisation) not specified.
  Using default value basis_acc =  0.1000000E-03.
  Species H                   : Using default innermost maximum threshold i_radial=  2 for radial functions.
  Species H                   : Default cutoff onset for free atom density etc. : 0.40000000E+01 AA.
  Species H                   : Basic radial grid will be enhanced according to radial_multiplier =   2, to contain    49 grid points.
 
  Finished reading input file 'control.in'. Consistency checks are next.
 
  Target number of points in a grid batch is not set. Defaulting to  100
  Method for grid partitioning is not set. Defaulting to parallel hash+maxmin partitioning.
  Batch size limit is not set. Defaulting to    200
  By default, will store active basis functions for each batch.
  If in need of memory, prune_basis_once .false. can be used to disable this option.
  communication_type for Hartree potential was not specified.
  Defaulting to calc_hartree .
  Pulay mixer: Number of relevant iterations not set.
  Defaulting to    8 iterations.
  Pulay mixer: Number of initial linear mixing iterations not set.
  Defaulting to    0 iterations.
  Work space size for distributed Hartree potential not set.
  Defaulting to   0.200000E+03 MB.
  Algorithm-dependent basis array size parameters:
  | n_max_pulay                         :        8
  Calculation of forces was not defined in control.in. No forces will be calculated.
  Geometry relaxation not requested: no relaxation will be performed.
  No accuracy limit for integral partition fn. given. Defaulting to 0.1000E-14.
  No threshold value for u(r) in integrations given. Defaulting to 0.1000E-05.
  No accuracy for occupation numbers given. Defaulting to 0.1000E-07.
  No threshold value for occupation numbers given. Defaulting to 0.0000E+00.
  No accuracy for fermi level given. Defaulting to 0.1000E-19.
  Maximum # of iterations to find E_F not set. Defaulting to  200.
  Will not use alltoall communication since running on < 1024 CPUs.
  Threshold for basis singularities not set.
  Default threshold for basis singularities: 0.1000E-04
  partition_type (choice of integration weights) for integrals was not specified.
  | Using a version of the partition function of Stratmann and coworkers ('stratmann_smoother').
  | At each grid point, the set of atoms used to build the partition table is smoothly restricted to
  | only those atoms whose free-atom density would be non-zero at that grid point.
  Partitioning for Hartree potential was not defined. Using partition_type for integrals.
  | Adjusted default value of keyword multip_moments_threshold to:       0.10000000E-11
  | This value may affect high angular momentum components of the Hartree potential in periodic systems.
  No q(lm)/r^(l+1) cutoff set for long-range Hartree potential.
  | Using default value of  0.100000E-09 .
  | Verify using the multipole_threshold keyword.
  Defaulting to new monopole extrapolation.
  Density update method: automatic selection selected.
------------------------------------------------------------


------------------------------------------------------------
          Reading geometry description geometry.in.
------------------------------------------------------------
  Input structure read successfully.
  The structure contains        2 atoms,  and a total of          2.000 electrons.

  Input geometry:
  | No unit cell requested.
  | Atomic structure:
  |       Atom                x [A]            y [A]            z [A]
  |    1: Species H              0.000000         0.000000         0.000000
  |    2: Species H              0.000000         0.000000         0.780000
  |

  | The smallest distance between any two atoms is         0.78000000 AA.
  |
  | The first atom of this pair is atom number                      1 .
  | The second atom of this pair is atom number                     2 .

  Initial moments and charges:
  |  Atom   Moment         Charge        Species
  |     1  (Hund's rule)   0.000000E+00   H
  |     2  (Hund's rule)   0.000000E+00   H

  Structure-dependent array size parameters: 
  | Number of distinct atom types in initial rho :        1
  | Maximum number of distinct radial functions  :        7
  | Maximum number of basis functions            :       30
  | Number of Kohn-Sham states (occupied + empty):       11
------------------------------------------------------------

------------------------------------------------------------
          Preparing all fixed parts of the calculation.
------------------------------------------------------------
  Determining machine precision:
    2.225073858507201E-308
  Setting up grids for atomic and cluster calculations.

  Creating wave function, potential, and density for free atoms.

  Species: H

  List of occupied orbitals and eigenvalues:
    n    l              occ      energy [Ha]    energy [eV]
    1    0           1.0000        -0.238386        -6.4868

  Spin-polarized or charged system:
  Charge density initialized according to selected moments and charges.

  Creating spin-polarized density from free atoms.

  Species: H
  Charge:   0.000000
  applying Hund's rules ...

  List of occupied orbitals and eigenvalues:
    n    l      energy [Ha]    energy [eV]    occupation
  Spin-up
    1    0        -0.278991        -7.5917     1.00000000
  Spin-down
    1    0         0.090850         2.4721     0.00000000

  Creating fixed part of basis set: Ionic, confined, hydrogenic.
 
  H                    hydrogenic:
 
  List of hydrogenic basis orbitals: 
    n    l      effective z      eigenvalue [eV]  inner max. [A]     outer max. [A]     outer radius [A]   
    2    0         2.100000       -14.9965           0.193243           1.317208           5.373006
    2    1         3.500000       -41.6672           0.602369           0.602369           4.056063
    1    0         0.850000        -9.8292           0.624871           0.624871           5.373006
    2    1         3.700000       -46.5653           0.573622           0.573622           3.910002
    2    0         1.200000        -4.5995           0.334980           2.228188           5.505995
    3    2         7.000000       -74.0753           0.680699           0.680699           3.769201
 

  Adding cutoff potential to free-atom effective potential.
  Creating atomic-like basis functions for current effective potential.

  Species H                   :

  List of atomic basis orbitals and eigenvalues:
    n    l      energy [Ha]    energy [eV]    outer radius [A]
    1    0        -0.238386        -6.4868       5.373006

  Assembling full basis from fixed parts.
  | Species H :   atomic orbital   1 s accepted.
  | Species H :    hydro orbital   2 s accepted.
  | Species H :    hydro orbital   1 s accepted.
  | Species H :    hydro orbital   2 s accepted.
  | Species H :    hydro orbital   2 p accepted.
  | Species H :    hydro orbital   2 p accepted.
  | Species H :    hydro orbital   3 d accepted.
 
  Basis size parameters after reduction:
  | Total number of radial functions:        7
  | Total number of basis functions :       30
 
  Testing on-site integration grid accuracy.
  |  Species  Function  <phi|h_atom|phi> (log., in eV)  <phi|h_atom|phi> (rad., in eV)
           1        1                 -6.4870767962                 -6.4871688290
           1        2                 13.5032046589                 13.5028982997
           1        3                 32.8195184817                 32.8119941656
           1        4                 33.8513856511                 33.7670005767 ***
           1        5                 28.8544614965                 28.8544615203
           1        6                 59.6326952547                 59.6327656460
           1        7                 60.2719308513                 60.2719305949
 * Note: Onsite integrals marked "***" above are less accurate than
 * onsite_accuracy_threshold =    0.03000 eV. Usually, this is harmless.
 * When in doubt, tighten the "radial" and/or "radial_multiplier" flags to check.

  Preparing densities etc. for the partition functions (integrals / Hartree potential).

  Preparations completed.
  max(cpu_time)          :      0.080 s.
  Wall clock time (cpu1) :      0.080 s.
------------------------------------------------------------

------------------------------------------------------------
          Begin self-consistency loop: Initialization.

          Date     :  20220120, Time     :  153403.385
------------------------------------------------------------

  Initializing index lists of integration centers etc. from given atomic structure:
  | Number of centers in hartree potential         :         2
  | Number of centers in hartree multipole         :         2
  | Number of centers in electron density summation:         2
  | Number of centers in basis integrals           :         2
  | Number of centers in integrals                 :         2
  Using modified Scalapack Eigenvalue solver (ELPA)
  * Using 8 tasks for Scalapack Eigenvalue solver.
  Detailed listing of tasks and assigned k-points:
  (for non-periodic systems, the "k-point" denotes an internal label only)
   Task     0 k-point     1 on csky019
   Task     1 k-point     1 on csky019
   Task     2 k-point     1 on csky019
   Task     3 k-point     1 on csky019
   Task     4 k-point     1 on csky019
   Task     5 k-point     1 on csky019
   Task     6 k-point     1 on csky019
   Task     7 k-point     1 on csky019
  Tasks:     8 split into      4 X      2 BLACS grid
  Calculating blocksize based on n_basis =           30 max_nprow =            4 max_npcol =            2
  Scalapack blocksize set to:            4
  Required Scalapack workspace - INTEGER:            1 REAL:             1
  Partitioning the integration grid into batches with parallel hashing+maxmin method.
  | Number of batches:      444
  | Maximal batch size:     197
  | Minimal batch size:      49
  | Average batch size:      65.090
  | Standard deviation of batch sizes:      18.392

  Integration load balanced across     8 MPI tasks.
  Work distribution over tasks is as follows:
  Task     0 has       3585 integration points.
  Task     1 has       3625 integration points.
  Task     2 has       3588 integration points.
  Task     3 has       3579 integration points.
  Task     4 has       3588 integration points.
  Task     5 has       3678 integration points.
  Task     6 has       3616 integration points.
  Task     7 has       3641 integration points.
  Initializing partition tables, free-atom densities, potentials, etc. across the integration grid (initialize_grid_storage).
  | initialize_grid_storage: Actual outermost partition radius vs. multipole_radius_free
  | (-- VB: in principle, multipole_radius_free should be larger, hence this output)
  | Species        1: outer_partition_radius =              6.000000000000000 AA, multipole_radius_free =              6.071692442739658 AA.
  | Original list of interatomic distances with           2 x          2 entries is created.
  | Net number of integration points:    28900
  | of which are non-zero points    :    26636
  Obtaining max. number of non-zero basis functions in each batch (get_n_compute_maxes).
  | Maximal number of non-zero basis functions:       30 in task     0
  | Maximal number of non-zero basis functions:       30 in task     1
  | Maximal number of non-zero basis functions:       30 in task     2
  | Maximal number of non-zero basis functions:       30 in task     3
  | Maximal number of non-zero basis functions:       30 in task     4
  | Maximal number of non-zero basis functions:       30 in task     5
  | Maximal number of non-zero basis functions:       30 in task     6
  | Maximal number of non-zero basis functions:       30 in task     7
  Selecting the method for density update.
  Loop over occupied states selected for charge density update.
  Integrating Hamiltonian matrix: batch-based integration.
  Time summed over all CPUs for integration: real work        0.087 s, elapsed        0.094 s
  Integrating overlap matrix.
  Time summed over all CPUs for integration: real work        0.023 s, elapsed        0.030 s
  Deallocating overlap matrix.

  Updating Kohn-Sham eigenvalues, eigenvectors, occupation numbers, and Fermi level.
  Solving generalized eigenproblem
  Solving real symmetric generalised eigenvalue problem by standard ScaLAPACK.
  Transforming overlap matrix with ScaLAPACK and checking for singularities.
  : Overlap matrix is nonsingular, using Cholesky decomposition
  | Lowest eigenvalue:  0.306277E-03
  Factoring overlap matrix with Cholesky decomposition
  Using Cholesky factor for transformation
  Using 1-stage real ELPA solver
  Solving real symmetric generalised eigenvalue problem by standard ScaLAPACK.
  Using Cholesky factor for transformation
  Using 1-stage real ELPA solver
  Determining occupation numbers for Kohn-Sham eigenstates.
  | Chemical potential (Fermi level) in eV                 : -.12283631E+01
  | Error in electron count due to remaining E_F inaccuracy: 0.00000000E+00
  | Maximum occupation number of highest empty state:  0.00E+00

  Writing Kohn-Sham eigenvalues.

  Spin-up eigenvalues:

  State    Occupation    Eigenvalue [Ha]    Eigenvalue [eV]
      1       1.00000          -0.571198          -15.54309
      2       1.00000          -0.062743           -1.70732
      3       0.00000           0.010463            0.28470
      4       0.00000           0.102818            2.79781
      5       0.00000           0.211994            5.76865
      6       0.00000           0.211994            5.76865
      7       0.00000           0.303952            8.27096
      8       0.00000           0.452962           12.32573
      9       0.00000           0.647498           17.61932
     10       0.00000           0.667877           18.17387
     11       0.00000           0.667877           18.17387

  Spin-down eigenvalues:

  State    Occupation    Eigenvalue [Ha]    Eigenvalue [eV]
      1       0.00000           0.099311            2.70238
      2       0.00000           0.116150            3.16061
      3       0.00000           0.504761           13.73526
      4       0.00000           0.537922           14.63759
      5       0.00000           1.146060           31.18589
      6       0.00000           1.146060           31.18589
      7       0.00000           1.237721           33.68009
      8       0.00000           1.523975           41.46947
      9       0.00000           1.523975           41.46947
     10       0.00000           1.564958           42.58468
     11       0.00000           1.661382           45.20849

  Current spin moment of the entire structure :
  | N = N_up - N_down :    2.00
  | S                 :    1.00
  | J                 :    3.00

  Highest occupied state (VBM) at     -1.70731524 eV
  | Occupation number:      1.00000000
  | Spin channel:        1

  Lowest unoccupied state (CBM) at     0.28470164 eV
  | Occupation number:      0.00000000
  | Spin channel:        1

  Overall HOMO-LUMO gap:      1.99201687 eV.
  Calculating total energy contributions from superposition of free atom densities.

  Total energy components:
  | Sum of eigenvalues            :          -0.63394060 Ha         -17.25040153 eV
  | XC energy correction          :          -0.68197857 Ha         -18.55758109 eV
  | XC potential correction       :           0.87972950 Ha          23.93865779 eV
  | Free-atom electrostatic energy:          -0.36986292 Ha         -10.06448219 eV
  | Hartree energy correction     :           0.00000000 Ha           0.00000000 eV
  | van der Waals energy corr.    :           0.00000000 Ha           0.00000000 eV
  | Entropy correction            :           0.00000000 Ha           0.00000000 eV
  | ---------------------------
  | Total energy                  :          -0.80605259 Ha         -21.93380701 eV
  | Total energy, T -> 0          :          -0.80605259 Ha         -21.93380701 eV  <-- do not rely on this value for anything but (periodic) metals
  | Electronic free energy        :          -0.80605259 Ha         -21.93380701 eV

  Derived energy quantities:
  | Kinetic energy                :           1.18248018 Ha          32.17692289 eV
  | Electrostatic energy          :          -1.30655420 Ha         -35.55314881 eV
  | Energy correction for multipole
  | error in Hartree potential    :           0.00000000 Ha           0.00000000 eV
  | Sum of eigenvalues per atom                           :          -8.62520076 eV
  | Total energy (T->0) per atom                          :         -10.96690351 eV  <-- do not rely on this value for anything but (periodic) metals
  | Electronic free energy per atom                       :         -10.96690351 eV
  Initialize hartree_potential_storage
  Max. number of atoms included in rho_multipole:            2

  End scf initialization - timings             :  max(cpu_time)    wall_clock(cpu1)
  | Time for scf. initialization               :        0.045 s           0.045 s
  | Boundary condition initialization          :        0.000 s           0.000 s
  | Integration                                :        0.016 s           0.016 s
  | Solution of K.-S. eqns.                    :        0.009 s           0.009 s
  | Grid partitioning                          :        0.007 s           0.007 s
  | Preloading free-atom quantities on grid    :        0.005 s           0.005 s
  | Free-atom superposition energy             :        0.003 s           0.003 s
  | Total energy evaluation                    :        0.000 s           0.000 s
------------------------------------------------------------

------------------------------------------------------------
          Begin self-consistency iteration #    1

  Date     :  20220120, Time     :  153403.431
------------------------------------------------------------
  Evaluating new KS density.
  Integration grid: deviation in total charge (<rho> - N_e) =   4.230245E-07
  | <rho_up-rho_dn> = N_up-N_dn =      2.0000; <|rho_up-rho_dn|> =      2.0845
  Pulay mixing of updated and previous charge densities.

  Evaluating partitioned Hartree potential by multipole expansion.
  | Analytical far-field extrapolation by fixed multipoles:
  | Hartree multipole sum: apparent total charge =  -0.835052E-05
  Summing up the Hartree potential.
  Time summed over all CPUs for potential: real work        0.039 s, elapsed        0.043 s
  | RMS charge density error from multipole expansion :   0.726673E-03

  Integrating Hamiltonian matrix: batch-based integration.
  Time summed over all CPUs for integration: real work        0.067 s, elapsed        0.072 s

  Updating Kohn-Sham eigenvalues, eigenvectors, occupation numbers, and Fermi level.
  Solving generalized eigenproblem
  Solving real symmetric generalised eigenvalue problem by standard ScaLAPACK.
  Using Cholesky factor for transformation
  Using 1-stage real ELPA solver
  Solving real symmetric generalised eigenvalue problem by standard ScaLAPACK.
  Using Cholesky factor for transformation
  Using 1-stage real ELPA solver
  Determining occupation numbers for Kohn-Sham eigenstates.
  | Chemical potential (Fermi level) in eV                 : -.49758131E+01
  | Error in electron count due to remaining E_F inaccuracy: 0.00000000E+00
  | Maximum occupation number of highest empty state:  0.00E+00

  Writing Kohn-Sham eigenvalues.

  Spin-up eigenvalues:

  State    Occupation    Eigenvalue [Ha]    Eigenvalue [eV]
      1       1.00000          -0.460416          -12.52856
      2       0.00000           0.067131            1.82672
      3       0.00000           0.067582            1.83899
      4       0.00000           0.178974            4.87012
      5       0.00000           0.256634            6.98337
      6       0.00000           0.256634            6.98337
      7       0.00000           0.368729           10.03363
      8       0.00000           0.561443           15.27764
      9       0.00000           0.768188           20.90346
     10       0.00000           0.768188           20.90346
     11       0.00000           0.832833           22.66254

  Spin-down eigenvalues:

  State    Occupation    Eigenvalue [Ha]    Eigenvalue [eV]
      1       1.00000          -0.244216           -6.64546
      2       0.00000           0.089610            2.43842
      3       0.00000           0.091453            2.48856
      4       0.00000           0.250881            6.82681
      5       0.00000           0.365514            9.94614
      6       0.00000           0.365514            9.94614
      7       0.00000           0.439186           11.95085
      8       0.00000           0.685410           18.65095
      9       0.00000           0.857550           23.33511
     10       0.00000           0.857550           23.33511
     11       0.00000           0.878395           23.90235

  Current spin moment of the entire structure :
  | N = N_up - N_down :    0.00
  | S                 :    0.00
  | J                 :    1.00

  Highest occupied state (VBM) at     -6.64545996 eV
  | Occupation number:      1.00000000
  | Spin channel:        2

  Lowest unoccupied state (CBM) at     1.82672161 eV
  | Occupation number:      0.00000000
  | Spin channel:        1

  Overall HOMO-LUMO gap:      8.47218157 eV.

  Total energy components:
  | Sum of eigenvalues            :          -0.70463240 Ha         -19.17402308 eV
  | XC energy correction          :          -0.46618342 Ha         -12.68549619 eV
  | XC potential correction       :           0.60112013 Ha          16.35731103 eV
  | Free-atom electrostatic energy:          -0.36986292 Ha         -10.06448219 eV
  | Hartree energy correction     :           0.00518856 Ha           0.14118781 eV
  | van der Waals energy corr.    :           0.00000000 Ha           0.00000000 eV
  | Entropy correction            :           0.00000000 Ha           0.00000000 eV
  | ---------------------------
  | Total energy                  :          -0.93437005 Ha         -25.42550261 eV
  | Total energy, T -> 0          :          -0.93437005 Ha         -25.42550261 eV  <-- do not rely on this value for anything but (periodic) metals
  | Electronic free energy        :          -0.93437005 Ha         -25.42550261 eV

  Derived energy quantities:
  | Kinetic energy                :           0.89107516 Ha          24.24738879 eV
  | Electrostatic energy          :          -1.35926179 Ha         -36.98739521 eV
  | Energy correction for multipole
  | error in Hartree potential    :          -0.00016742 Ha          -0.00455578 eV
  | Sum of eigenvalues per atom                           :          -9.58701154 eV
  | Total energy (T->0) per atom                          :         -12.71275131 eV  <-- do not rely on this value for anything but (periodic) metals
  | Electronic free energy per atom                       :         -12.71275131 eV

  Self-consistency convergence accuracy:
  | Change of charge/spin density : 0.4939E-01 0.4939E-01
  | Change of sum of eigenvalues  : -.1924E+01 eV
  | Change of total energy        : -.3492E+01 eV

  End self-consistency iteration #     1       :  max(cpu_time)    wall_clock(cpu1)
  | Time for this iteration                    :        0.028 s           0.027 s
  | Charge density update                      :        0.007 s           0.006 s
  | Density mixing                             :        0.001 s           0.001 s
  | Hartree multipole update                   :        0.001 s           0.001 s
  | Hartree multipole summation                :        0.006 s           0.007 s
  | Integration                                :        0.009 s           0.009 s
  | Solution of K.-S. eqns.                    :        0.001 s           0.001 s
  | Total energy evaluation                    :        0.000 s           0.001 s
------------------------------------------------------------

------------------------------------------------------------
          Begin self-consistency iteration #    2

  Date     :  20220120, Time     :  153403.460
------------------------------------------------------------
  Evaluating new KS density.
  Integration grid: deviation in total charge (<rho> - N_e) =   2.538147E-07
  | <rho_up-rho_dn> = N_up-N_dn =     -2.0000; <|rho_up-rho_dn|> =      2.0000
  Pulay mixing of updated and previous charge densities.

  Evaluating partitioned Hartree potential by multipole expansion.
  | Analytical far-field extrapolation by fixed multipoles:
  | Hartree multipole sum: apparent total charge =  -0.825106E-05
  Summing up the Hartree potential.
  Time summed over all CPUs for potential: real work        0.033 s, elapsed        0.033 s
  | RMS charge density error from multipole expansion :   0.711250E-03

  Integrating Hamiltonian matrix: batch-based integration.
  Time summed over all CPUs for integration: real work        0.068 s, elapsed        0.070 s

  Updating Kohn-Sham eigenvalues, eigenvectors, occupation numbers, and Fermi level.
  Solving generalized eigenproblem
  Solving real symmetric generalised eigenvalue problem by standard ScaLAPACK.
  Using Cholesky factor for transformation
  Using 1-stage real ELPA solver
  Solving real symmetric generalised eigenvalue problem by standard ScaLAPACK.
  Using Cholesky factor for transformation
  Using 1-stage real ELPA solver
  Determining occupation numbers for Kohn-Sham eigenstates.
  | Chemical potential (Fermi level) in eV                 : -.67950700E+01
  | Error in electron count due to remaining E_F inaccuracy: 0.00000000E+00
  | Maximum occupation number of highest empty state:  0.00E+00

  Current spin moment of the entire structure :
  | N = N_up - N_down :    0.00
  | S                 :    0.00
  | J                 :    1.00

  Highest occupied state (VBM) at     -7.81601318 eV
  | Occupation number:      1.00000000
  | Spin channel:        2

  Lowest unoccupied state (CBM) at     1.03891368 eV
  | Occupation number:      0.00000000
  | Spin channel:        1

  Overall HOMO-LUMO gap:      8.85492686 eV.

  Total energy components:
  | Sum of eigenvalues            :          -0.82816026 Ha         -22.53538717 eV
  | XC energy correction          :          -0.56416544 Ha         -15.35172277 eV
  | XC potential correction       :           0.72888110 Ha          19.83386396 eV
  | Free-atom electrostatic energy:          -0.36986292 Ha         -10.06448219 eV
  | Hartree energy correction     :           0.00272657 Ha           0.07419380 eV
  | van der Waals energy corr.    :           0.00000000 Ha           0.00000000 eV
  | Entropy correction            :           0.00000000 Ha           0.00000000 eV
  | ---------------------------
  | Total energy                  :          -1.03058095 Ha         -28.04353436 eV
  | Total energy, T -> 0          :          -1.03058095 Ha         -28.04353436 eV  <-- do not rely on this value for anything but (periodic) metals
  | Electronic free energy        :          -1.03058095 Ha         -28.04353436 eV

  Derived energy quantities:
  | Kinetic energy                :           0.89532417 Ha          24.36301024 eV
  | Electrostatic energy          :          -1.36173967 Ha         -37.05482183 eV
  | Energy correction for multipole
  | error in Hartree potential    :          -0.00016457 Ha          -0.00447820 eV
  | Sum of eigenvalues per atom                           :         -11.26769359 eV
  | Total energy (T->0) per atom                          :         -14.02176718 eV  <-- do not rely on this value for anything but (periodic) metals
  | Electronic free energy per atom                       :         -14.02176718 eV

  Self-consistency convergence accuracy:
  | Change of charge/spin density : 0.1144E+00 0.2785E+00
  | Change of sum of eigenvalues  : -.3361E+01 eV
  | Change of total energy        : -.2618E+01 eV

  End self-consistency iteration #     2       :  max(cpu_time)    wall_clock(cpu1)
  | Time for this iteration                    :        0.025 s           0.024 s
  | Charge density update                      :        0.006 s           0.006 s
  | Density mixing                             :        0.001 s           0.001 s
  | Hartree multipole update                   :        0.001 s           0.001 s
  | Hartree multipole summation                :        0.004 s           0.005 s
  | Integration                                :        0.009 s           0.009 s
  | Solution of K.-S. eqns.                    :        0.002 s           0.001 s
  | Total energy evaluation                    :        0.000 s           0.000 s
------------------------------------------------------------

------------------------------------------------------------
          Begin self-consistency iteration #    3

  Date     :  20220120, Time     :  153403.490
------------------------------------------------------------
  Evaluating new KS density.
  Integration grid: deviation in total charge (<rho> - N_e) =   2.507202E-07
  | <rho_up-rho_dn> = N_up-N_dn =     -1.9634; <|rho_up-rho_dn|> =      1.9634
  Pulay mixing of updated and previous charge densities.

  Evaluating partitioned Hartree potential by multipole expansion.
  | Analytical far-field extrapolation by fixed multipoles:
  | Hartree multipole sum: apparent total charge =  -0.827122E-05
  Summing up the Hartree potential.
  Time summed over all CPUs for potential: real work        0.033 s, elapsed        0.033 s
  | RMS charge density error from multipole expansion :   0.701552E-03

  Integrating Hamiltonian matrix: batch-based integration.
  Time summed over all CPUs for integration: real work        0.072 s, elapsed        0.077 s

  Updating Kohn-Sham eigenvalues, eigenvectors, occupation numbers, and Fermi level.
  Solving generalized eigenproblem
  Solving real symmetric generalised eigenvalue problem by standard ScaLAPACK.
  Using Cholesky factor for transformation
  Using 1-stage real ELPA solver
  Solving real symmetric generalised eigenvalue problem by standard ScaLAPACK.
  Using Cholesky factor for transformation
  Using 1-stage real ELPA solver
  Determining occupation numbers for Kohn-Sham eigenstates.
  | Chemical potential (Fermi level) in eV                 : -.67929816E+01
  | Error in electron count due to remaining E_F inaccuracy: 0.00000000E+00
  | Maximum occupation number of highest empty state:  0.00E+00

  Current spin moment of the entire structure :
  | N = N_up - N_down :    0.00
  | S                 :    0.00
  | J                 :    1.00

  Highest occupied state (VBM) at     -7.75636165 eV
  | Occupation number:      1.00000000
  | Spin channel:        2

  Lowest unoccupied state (CBM) at     1.06842902 eV
  | Occupation number:      0.00000000
  | Spin channel:        1

  Overall HOMO-LUMO gap:      8.82479067 eV.

  Total energy components:
  | Sum of eigenvalues            :          -0.82603009 Ha         -22.47742230 eV
  | XC energy correction          :          -0.56113658 Ha         -15.26930336 eV
  | XC potential correction       :           0.72500837 Ha          19.72848145 eV
  | Free-atom electrostatic energy:          -0.36986292 Ha         -10.06448219 eV
  | Hartree energy correction     :           0.00443921 Ha           0.12079706 eV
  | van der Waals energy corr.    :           0.00000000 Ha           0.00000000 eV
  | Entropy correction            :           0.00000000 Ha           0.00000000 eV
  | ---------------------------
  | Total energy                  :          -1.02758202 Ha         -27.96192935 eV
  | Total energy, T -> 0          :          -1.02758202 Ha         -27.96192935 eV  <-- do not rely on this value for anything but (periodic) metals
  | Electronic free energy        :          -1.02758202 Ha         -27.96192935 eV

  Derived energy quantities:
  | Kinetic energy                :           0.89173330 Ha          24.26529772 eV
  | Electrostatic energy          :          -1.35817873 Ha         -36.95792371 eV
  | Energy correction for multipole
  | error in Hartree potential    :          -0.00016140 Ha          -0.00439185 eV
  | Sum of eigenvalues per atom                           :         -11.23871115 eV
  | Total energy (T->0) per atom                          :         -13.98096467 eV  <-- do not rely on this value for anything but (periodic) metals
  | Electronic free energy per atom                       :         -13.98096467 eV

  Self-consistency convergence accuracy:
  | Change of charge/spin density : 0.1427E+00 0.2666E+00
  | Change of sum of eigenvalues  : 0.5796E-01 eV
  | Change of total energy        : 0.8161E-01 eV

  End self-consistency iteration #     3       :  max(cpu_time)    wall_clock(cpu1)
  | Time for this iteration                    :        0.026 s           0.026 s
  | Charge density update                      :        0.007 s           0.006 s
  | Density mixing                             :        0.001 s           0.001 s
  | Hartree multipole update                   :        0.001 s           0.002 s
  | Hartree multipole summation                :        0.004 s           0.004 s
  | Integration                                :        0.010 s           0.010 s
  | Solution of K.-S. eqns.                    :        0.001 s           0.002 s
  | Total energy evaluation                    :        0.000 s           0.001 s
------------------------------------------------------------

------------------------------------------------------------
          Begin self-consistency iteration #    4

  Date     :  20220120, Time     :  153403.520
------------------------------------------------------------
  Evaluating new KS density.
  Integration grid: deviation in total charge (<rho> - N_e) =   2.509164E-07
  | <rho_up-rho_dn> = N_up-N_dn =     -1.9652; <|rho_up-rho_dn|> =      1.9652
  Pulay mixing of updated and previous charge densities.

  Evaluating partitioned Hartree potential by multipole expansion.
  | Analytical far-field extrapolation by fixed multipoles:
  | Hartree multipole sum: apparent total charge =  -0.833634E-05
  Summing up the Hartree potential.
  Time summed over all CPUs for potential: real work        0.033 s, elapsed        0.033 s
  | RMS charge density error from multipole expansion :   0.632297E-03

  Integrating Hamiltonian matrix: batch-based integration.
  Time summed over all CPUs for integration: real work        0.069 s, elapsed        0.073 s

  Updating Kohn-Sham eigenvalues, eigenvectors, occupation numbers, and Fermi level.
  Solving generalized eigenproblem
  Solving real symmetric generalised eigenvalue problem by standard ScaLAPACK.
  Using Cholesky factor for transformation
  Using 1-stage real ELPA solver
  Solving real symmetric generalised eigenvalue problem by standard ScaLAPACK.
  Using Cholesky factor for transformation
  Using 1-stage real ELPA solver
  Determining occupation numbers for Kohn-Sham eigenstates.
  | Chemical potential (Fermi level) in eV                 : -.39699852E+01
  | Error in electron count due to remaining E_F inaccuracy: 0.00000000E+00
  | Maximum occupation number of highest empty state:  0.00E+00

  Current spin moment of the entire structure :
  | N = N_up - N_down :    0.00
  | S                 :    0.00
  | J                 :    1.00

  Highest occupied state (VBM) at     -6.60813200 eV
  | Occupation number:      1.00000000
  | Spin channel:        2

  Lowest unoccupied state (CBM) at     1.81928586 eV
  | Occupation number:      0.00000000
  | Spin channel:        1

  Overall HOMO-LUMO gap:      8.42741786 eV.

  Total energy components:
  | Sum of eigenvalues            :          -0.65390633 Ha         -17.79369647 eV
  | XC energy correction          :          -0.39854484 Ha         -10.84495701 eV
  | XC potential correction       :           0.51226393 Ha          13.93941089 eV
  | Free-atom electrostatic energy:          -0.36986292 Ha         -10.06448219 eV
  | Hartree energy correction     :           0.01268171 Ha           0.34508699 eV
  | van der Waals energy corr.    :           0.00000000 Ha           0.00000000 eV
  | Entropy correction            :           0.00000000 Ha           0.00000000 eV
  | ---------------------------
  | Total energy                  :          -0.89736844 Ha         -24.41863779 eV
  | Total energy, T -> 0          :          -0.89736844 Ha         -24.41863779 eV  <-- do not rely on this value for anything but (periodic) metals
  | Electronic free energy        :          -0.89736844 Ha         -24.41863779 eV

  Derived energy quantities:
  | Kinetic energy                :           0.84136062 Ha          22.89458729 eV
  | Electrostatic energy          :          -1.34018422 Ha         -36.46826807 eV
  | Energy correction for multipole
  | error in Hartree potential    :          -0.00014176 Ha          -0.00385757 eV
  | Sum of eigenvalues per atom                           :          -8.89684824 eV
  | Total energy (T->0) per atom                          :         -12.20931890 eV  <-- do not rely on this value for anything but (periodic) metals
  | Electronic free energy per atom                       :         -12.20931890 eV

  Self-consistency convergence accuracy:
  | Change of charge/spin density : 0.1436E+00 0.2656E+00
  | Change of sum of eigenvalues  : 0.4684E+01 eV
  | Change of total energy        : 0.3543E+01 eV

  End self-consistency iteration #     4       :  max(cpu_time)    wall_clock(cpu1)
  | Time for this iteration                    :        0.027 s           0.027 s
  | Charge density update                      :        0.007 s           0.007 s
  | Density mixing                             :        0.002 s           0.001 s
  | Hartree multipole update                   :        0.001 s           0.002 s
  | Hartree multipole summation                :        0.005 s           0.004 s
  | Integration                                :        0.009 s           0.010 s
  | Solution of K.-S. eqns.                    :        0.002 s           0.001 s
  | Total energy evaluation                    :        0.000 s           0.000 s
------------------------------------------------------------

------------------------------------------------------------
          Begin self-consistency iteration #    5

  Date     :  20220120, Time     :  153403.550
------------------------------------------------------------
  Evaluating new KS density.
  Integration grid: deviation in total charge (<rho> - N_e) =   2.508792E-07
  | <rho_up-rho_dn> = N_up-N_dn =     -1.9613; <|rho_up-rho_dn|> =      1.9613
  Pulay mixing of updated and previous charge densities.

  Evaluating partitioned Hartree potential by multipole expansion.
  | Analytical far-field extrapolation by fixed multipoles:
  | Hartree multipole sum: apparent total charge =  -0.833534E-05
  Summing up the Hartree potential.
  Time summed over all CPUs for potential: real work        0.035 s, elapsed        0.040 s
  | RMS charge density error from multipole expansion :   0.717205E-03

  Integrating Hamiltonian matrix: batch-based integration.
  Time summed over all CPUs for integration: real work        0.067 s, elapsed        0.073 s

  Updating Kohn-Sham eigenvalues, eigenvectors, occupation numbers, and Fermi level.
  Solving generalized eigenproblem
  Solving real symmetric generalised eigenvalue problem by standard ScaLAPACK.
  Using Cholesky factor for transformation
  Using 1-stage real ELPA solver
  Solving real symmetric generalised eigenvalue problem by standard ScaLAPACK.
  Using Cholesky factor for transformation
  Using 1-stage real ELPA solver
  Determining occupation numbers for Kohn-Sham eigenstates.
  | Chemical potential (Fermi level) in eV                 : -.30205969E+01
  | Error in electron count due to remaining E_F inaccuracy: 0.00000000E+00
  | Maximum occupation number of highest empty state:  0.00E+00

  Current spin moment of the entire structure :
  | N = N_up - N_down :    0.00
  | S                 :    0.00
  | J                 :    1.00

  Highest occupied state (VBM) at     -5.89414642 eV
  | Occupation number:      1.00000000
  | Spin channel:        2

  Lowest unoccupied state (CBM) at     1.94871685 eV
  | Occupation number:      0.00000000
  | Spin channel:        1

  Overall HOMO-LUMO gap:      7.84286327 eV.

  Total energy components:
  | Sum of eigenvalues            :          -0.58545399 Ha         -15.93101362 eV
  | XC energy correction          :          -0.36118858 Ha          -9.82844143 eV
  | XC potential correction       :           0.46302603 Ha          12.59957927 eV
  | Free-atom electrostatic energy:          -0.36986292 Ha         -10.06448219 eV
  | Hartree energy correction     :           0.00446986 Ha           0.12163114 eV
  | van der Waals energy corr.    :           0.00000000 Ha           0.00000000 eV
  | Entropy correction            :           0.00000000 Ha           0.00000000 eV
  | ---------------------------
  | Total energy                  :          -0.84900961 Ha         -23.10272683 eV
  | Total energy, T -> 0          :          -0.84900961 Ha         -23.10272683 eV  <-- do not rely on this value for anything but (periodic) metals
  | Electronic free energy        :          -0.84900961 Ha         -23.10272683 eV

  Derived energy quantities:
  | Kinetic energy                :           0.87368896 Ha          23.77428631 eV
  | Electrostatic energy          :          -1.36150999 Ha         -37.04857170 eV
  | Energy correction for multipole
  | error in Hartree potential    :          -0.00016141 Ha          -0.00439214 eV
  | Sum of eigenvalues per atom                           :          -7.96550681 eV
  | Total energy (T->0) per atom                          :         -11.55136342 eV  <-- do not rely on this value for anything but (periodic) metals
  | Electronic free energy per atom                       :         -11.55136342 eV

  Self-consistency convergence accuracy:
  | Change of charge/spin density : 0.1057E+00 0.2860E+00
  | Change of sum of eigenvalues  : 0.1863E+01 eV
  | Change of total energy        : 0.1316E+01 eV

  End self-consistency iteration #     5       :  max(cpu_time)    wall_clock(cpu1)
  | Time for this iteration                    :        0.028 s           0.027 s
  | Charge density update                      :        0.007 s           0.007 s
  | Density mixing                             :        0.002 s           0.001 s
  | Hartree multipole update                   :        0.002 s           0.002 s
  | Hartree multipole summation                :        0.005 s           0.006 s
  | Integration                                :        0.009 s           0.009 s
  | Solution of K.-S. eqns.                    :        0.001 s           0.001 s
  | Total energy evaluation                    :        0.000 s           0.000 s
------------------------------------------------------------

------------------------------------------------------------
          Begin self-consistency iteration #    6

  Date     :  20220120, Time     :  153403.580
------------------------------------------------------------
  Evaluating new KS density.
  Integration grid: deviation in total charge (<rho> - N_e) =   2.534904E-07
  | <rho_up-rho_dn> = N_up-N_dn =     -1.9822; <|rho_up-rho_dn|> =      1.9822
  Pulay mixing of updated and previous charge densities.

  Evaluating partitioned Hartree potential by multipole expansion.
  | Analytical far-field extrapolation by fixed multipoles:
  | Hartree multipole sum: apparent total charge =  -0.890865E-05
  Summing up the Hartree potential.
  Time summed over all CPUs for potential: real work        0.033 s, elapsed        0.033 s
  | RMS charge density error from multipole expansion :   0.751027E-03

  Integrating Hamiltonian matrix: batch-based integration.
  Time summed over all CPUs for integration: real work        0.063 s, elapsed        0.066 s

  Updating Kohn-Sham eigenvalues, eigenvectors, occupation numbers, and Fermi level.
  Solving generalized eigenproblem
  Solving real symmetric generalised eigenvalue problem by standard ScaLAPACK.
  Using Cholesky factor for transformation
  Using 1-stage real ELPA solver
  Solving real symmetric generalised eigenvalue problem by standard ScaLAPACK.
  Using Cholesky factor for transformation
  Using 1-stage real ELPA solver
  Determining occupation numbers for Kohn-Sham eigenstates.
  | Chemical potential (Fermi level) in eV                 : -.36882353E+01
  | Error in electron count due to remaining E_F inaccuracy: 0.00000000E+00
  | Maximum occupation number of highest empty state:  0.00E+00

  Current spin moment of the entire structure :
  | N = N_up - N_down :    0.00
  | S                 :    0.00
  | J                 :    1.00

  Highest occupied state (VBM) at     -6.53289703 eV
  | Occupation number:      1.00000000
  | Spin channel:        2

  Lowest unoccupied state (CBM) at     2.33478668 eV
  | Occupation number:      0.00000000
  | Spin channel:        1

  Overall HOMO-LUMO gap:      8.86768372 eV.

  Total energy components:
  | Sum of eigenvalues            :          -0.65727885 Ha         -17.88546746 eV
  | XC energy correction          :          -0.38614136 Ha         -10.50744112 eV
  | XC potential correction       :           0.50083445 Ha          13.62839877 eV
  | Free-atom electrostatic energy:          -0.36986292 Ha         -10.06448219 eV
  | Hartree energy correction     :          -0.01497575 Ha          -0.40751090 eV
  | van der Waals energy corr.    :           0.00000000 Ha           0.00000000 eV
  | Entropy correction            :           0.00000000 Ha           0.00000000 eV
  | ---------------------------
  | Total energy                  :          -0.92742444 Ha         -25.23650290 eV
  | Total energy, T -> 0          :          -0.92742444 Ha         -25.23650290 eV  <-- do not rely on this value for anything but (periodic) metals
  | Electronic free energy        :          -0.92742444 Ha         -25.23650290 eV

  Derived energy quantities:
  | Kinetic energy                :           0.80255192 Ha          21.83854893 eV
  | Electrostatic energy          :          -1.34383499 Ha         -36.56761071 eV
  | Energy correction for multipole
  | error in Hartree potential    :          -0.00013202 Ha          -0.00359246 eV
  | Sum of eigenvalues per atom                           :          -8.94273373 eV
  | Total energy (T->0) per atom                          :         -12.61825145 eV  <-- do not rely on this value for anything but (periodic) metals
  | Electronic free energy per atom                       :         -12.61825145 eV

  Self-consistency convergence accuracy:
  | Change of charge/spin density : 0.8735E-01 0.2973E+00
  | Change of sum of eigenvalues  : -.1954E+01 eV
  | Change of total energy        : -.2134E+01 eV

  End self-consistency iteration #     6       :  max(cpu_time)    wall_clock(cpu1)
  | Time for this iteration                    :        0.025 s           0.024 s
  | Charge density update                      :        0.006 s           0.006 s
  | Density mixing                             :        0.002 s           0.001 s
  | Hartree multipole update                   :        0.001 s           0.002 s
  | Hartree multipole summation                :        0.004 s           0.004 s
  | Integration                                :        0.008 s           0.009 s
  | Solution of K.-S. eqns.                    :        0.001 s           0.001 s
  | Total energy evaluation                    :        0.000 s           0.001 s
------------------------------------------------------------

------------------------------------------------------------
          Begin self-consistency iteration #    7

  Date     :  20220120, Time     :  153403.609
------------------------------------------------------------
  Evaluating new KS density.
  Integration grid: deviation in total charge (<rho> - N_e) =   2.599680E-07
  | <rho_up-rho_dn> = N_up-N_dn =     -2.0967; <|rho_up-rho_dn|> =      2.0967
  Pulay mixing of updated and previous charge densities.

  Evaluating partitioned Hartree potential by multipole expansion.
  | Analytical far-field extrapolation by fixed multipoles:
  | Hartree multipole sum: apparent total charge =  -0.871974E-05
  Summing up the Hartree potential.
  Time summed over all CPUs for potential: real work        0.033 s, elapsed        0.033 s
  | RMS charge density error from multipole expansion :   0.681746E-03

  Integrating Hamiltonian matrix: batch-based integration.
  Time summed over all CPUs for integration: real work        0.064 s, elapsed        0.066 s

  Updating Kohn-Sham eigenvalues, eigenvectors, occupation numbers, and Fermi level.
  Solving generalized eigenproblem
  Solving real symmetric generalised eigenvalue problem by standard ScaLAPACK.
  Using Cholesky factor for transformation
  Using 1-stage real ELPA solver
  Solving real symmetric generalised eigenvalue problem by standard ScaLAPACK.
  Using Cholesky factor for transformation
  Using 1-stage real ELPA solver
  Determining occupation numbers for Kohn-Sham eigenstates.
  | Chemical potential (Fermi level) in eV                 : -.47656752E+01
  | Error in electron count due to remaining E_F inaccuracy: 0.00000000E+00
  | Maximum occupation number of highest empty state:  0.00E+00

  Current spin moment of the entire structure :
  | N = N_up - N_down :    0.00
  | S                 :    0.00
  | J                 :    1.00

  Highest occupied state (VBM) at     -6.83580273 eV
  | Occupation number:      1.00000000
  | Spin channel:        2

  Lowest unoccupied state (CBM) at     2.22988797 eV
  | Occupation number:      0.00000000
  | Spin channel:        1

  Overall HOMO-LUMO gap:      9.06569071 eV.

  Total energy components:
  | Sum of eigenvalues            :          -0.70581380 Ha         -19.20617061 eV
  | XC energy correction          :          -0.43057811 Ha         -11.71662657 eV
  | XC potential correction       :           0.55761734 Ha          15.17353982 eV
  | Free-atom electrostatic energy:          -0.36986292 Ha         -10.06448219 eV
  | Hartree energy correction     :          -0.00924010 Ha          -0.25143594 eV
  | van der Waals energy corr.    :           0.00000000 Ha           0.00000000 eV
  | Entropy correction            :           0.00000000 Ha           0.00000000 eV
  | ---------------------------
  | Total energy                  :          -0.95787759 Ha         -26.06517549 eV
  | Total energy, T -> 0          :          -0.95787759 Ha         -26.06517549 eV  <-- do not rely on this value for anything but (periodic) metals
  | Electronic free energy        :          -0.95787759 Ha         -26.06517549 eV

  Derived energy quantities:
  | Kinetic energy                :           0.81867466 Ha          22.27727085 eV
  | Electrostatic energy          :          -1.34597414 Ha         -36.62581978 eV
  | Energy correction for multipole
  | error in Hartree potential    :          -0.00013643 Ha          -0.00371242 eV
  | Sum of eigenvalues per atom                           :          -9.60308531 eV
  | Total energy (T->0) per atom                          :         -13.03258774 eV  <-- do not rely on this value for anything but (periodic) metals
  | Electronic free energy per atom                       :         -13.03258774 eV

  Self-consistency convergence accuracy:
  | Change of charge/spin density : 0.1529E+00 0.2811E+00
  | Change of sum of eigenvalues  : -.1321E+01 eV
  | Change of total energy        : -.8287E+00 eV

  End self-consistency iteration #     7       :  max(cpu_time)    wall_clock(cpu1)
  | Time for this iteration                    :        0.026 s           0.026 s
  | Charge density update                      :        0.006 s           0.006 s
  | Density mixing                             :        0.002 s           0.002 s
  | Hartree multipole update                   :        0.001 s           0.001 s
  | Hartree multipole summation                :        0.006 s           0.006 s
  | Integration                                :        0.008 s           0.009 s
  | Solution of K.-S. eqns.                    :        0.001 s           0.001 s
  | Total energy evaluation                    :        0.000 s           0.000 s
------------------------------------------------------------

------------------------------------------------------------
          Begin self-consistency iteration #    8

  Date     :  20220120, Time     :  153403.640
------------------------------------------------------------
  Evaluating new KS density.
  Integration grid: deviation in total charge (<rho> - N_e) =   2.564572E-07
  | <rho_up-rho_dn> = N_up-N_dn =     -2.0554; <|rho_up-rho_dn|> =      2.0554
  Pulay mixing of updated and previous charge densities.

  Evaluating partitioned Hartree potential by multipole expansion.
  | Analytical far-field extrapolation by fixed multipoles:
  | Hartree multipole sum: apparent total charge =  -0.786476E-05
  Summing up the Hartree potential.
  Time summed over all CPUs for potential: real work        0.033 s, elapsed        0.033 s
  | RMS charge density error from multipole expansion :   0.102748E-02

  Integrating Hamiltonian matrix: batch-based integration.
  Time summed over all CPUs for integration: real work        0.067 s, elapsed        0.069 s

  Updating Kohn-Sham eigenvalues, eigenvectors, occupation numbers, and Fermi level.
  Solving generalized eigenproblem
  Solving real symmetric generalised eigenvalue problem by standard ScaLAPACK.
  Using Cholesky factor for transformation
  Using 1-stage real ELPA solver
  Solving real symmetric generalised eigenvalue problem by standard ScaLAPACK.
  Using Cholesky factor for transformation
  Using 1-stage real ELPA solver
  Determining occupation numbers for Kohn-Sham eigenstates.
  | Chemical potential (Fermi level) in eV                 : -.41234138E+01
  | Error in electron count due to remaining E_F inaccuracy: 0.00000000E+00
  | Maximum occupation number of highest empty state:  0.00E+00

  Current spin moment of the entire structure :
  | N = N_up - N_down :    0.00
  | S                 :    0.00
  | J                 :    1.00

  Highest occupied state (VBM) at     -7.00384975 eV
  | Occupation number:      1.00000000
  | Spin channel:        2

  Lowest unoccupied state (CBM) at     1.20035796 eV
  | Occupation number:      0.00000000
  | Spin channel:        1

  Overall HOMO-LUMO gap:      8.20420771 eV.

  Total energy components:
  | Sum of eigenvalues            :          -0.67256666 Ha         -18.30147004 eV
  | XC energy correction          :          -0.48925143 Ha         -13.31320869 eV
  | XC potential correction       :           0.62913649 Ha          17.11967497 eV
  | Free-atom electrostatic energy:          -0.36986292 Ha         -10.06448219 eV
  | Hartree energy correction     :          -0.02141480 Ha          -0.58272627 eV
  | van der Waals energy corr.    :           0.00000000 Ha           0.00000000 eV
  | Entropy correction            :           0.00000000 Ha           0.00000000 eV
  | ---------------------------
  | Total energy                  :          -0.92395932 Ha         -25.14221222 eV
  | Total energy, T -> 0          :          -0.92395932 Ha         -25.14221222 eV  <-- do not rely on this value for anything but (periodic) metals
  | Electronic free energy        :          -0.92395932 Ha         -25.14221222 eV

  Derived energy quantities:
  | Kinetic energy                :           0.98138487 Ha          26.70484093 eV
  | Electrostatic energy          :          -1.41609276 Ha         -38.53384446 eV
  | Energy correction for multipole
  | error in Hartree potential    :          -0.00020938 Ha          -0.00569745 eV
  | Sum of eigenvalues per atom                           :          -9.15073502 eV
  | Total energy (T->0) per atom                          :         -12.57110611 eV  <-- do not rely on this value for anything but (periodic) metals
  | Electronic free energy per atom                       :         -12.57110611 eV

  Self-consistency convergence accuracy:
  | Change of charge/spin density : 0.1523E+00 0.2769E+00
  | Change of sum of eigenvalues  : 0.9047E+00 eV
  | Change of total energy        : 0.9230E+00 eV

  End self-consistency iteration #     8       :  max(cpu_time)    wall_clock(cpu1)
  | Time for this iteration                    :        0.026 s           0.025 s
  | Charge density update                      :        0.006 s           0.006 s
  | Density mixing                             :        0.002 s           0.001 s
  | Hartree multipole update                   :        0.001 s           0.002 s
  | Hartree multipole summation                :        0.004 s           0.004 s
  | Integration                                :        0.009 s           0.009 s
  | Solution of K.-S. eqns.                    :        0.001 s           0.002 s
  | Total energy evaluation                    :        0.000 s           0.001 s
------------------------------------------------------------

------------------------------------------------------------
          Begin self-consistency iteration #    9

  Date     :  20220120, Time     :  153403.670
------------------------------------------------------------
  Evaluating new KS density.
  Integration grid: deviation in total charge (<rho> - N_e) =   2.456566E-07
  | <rho_up-rho_dn> = N_up-N_dn =     -1.9501; <|rho_up-rho_dn|> =      1.9501
  Pulay mixing of updated and previous charge densities.

  Evaluating partitioned Hartree potential by multipole expansion.
  | Analytical far-field extrapolation by fixed multipoles:
  | Hartree multipole sum: apparent total charge =  -0.322824E-05
  Summing up the Hartree potential.
  Time summed over all CPUs for potential: real work        0.033 s, elapsed        0.033 s
  | RMS charge density error from multipole expansion :   0.586030E-02

  Integrating Hamiltonian matrix: batch-based integration.
  Time summed over all CPUs for integration: real work        0.068 s, elapsed        0.070 s

  Updating Kohn-Sham eigenvalues, eigenvectors, occupation numbers, and Fermi level.
  Solving generalized eigenproblem
  Solving real symmetric generalised eigenvalue problem by standard ScaLAPACK.
  Using Cholesky factor for transformation
  Using 1-stage real ELPA solver
  Solving real symmetric generalised eigenvalue problem by standard ScaLAPACK.
  Using Cholesky factor for transformation
  Using 1-stage real ELPA solver
  Determining occupation numbers for Kohn-Sham eigenstates.
  | Chemical potential (Fermi level) in eV                 : -.79064607E+01
  | Error in electron count due to remaining E_F inaccuracy: 0.00000000E+00
  | Maximum occupation number of highest empty state:  0.00E+00

  Current spin moment of the entire structure :
  | N = N_up - N_down :    0.00
  | S                 :    0.00
  | J                 :    1.00

  Highest occupied state (VBM) at     -7.92296819 eV
  | Occupation number:      1.00000000
  | Spin channel:        2

  Lowest unoccupied state (CBM) at     0.18397641 eV
  | Occupation number:      0.00000000
  | Spin channel:        1

  Overall HOMO-LUMO gap:      8.10694461 eV.

  Total energy components:
  | Sum of eigenvalues            :          -0.66615302 Ha         -18.12694604 eV
  | XC energy correction          :          -0.75364523 Ha         -20.50773000 eV
  | XC potential correction       :           0.96620918 Ha          26.29188945 eV
  | Free-atom electrostatic energy:          -0.36986292 Ha         -10.06448219 eV
  | Hartree energy correction     :          -0.13795425 Ha          -3.75392614 eV
  | van der Waals energy corr.    :           0.00000000 Ha           0.00000000 eV
  | Entropy correction            :          -0.00000000 Ha          -0.00000000 eV
  | ---------------------------
  | Total energy                  :          -0.96140624 Ha         -26.16119491 eV
  | Total energy, T -> 0          :          -0.96140624 Ha         -26.16119491 eV  <-- do not rely on this value for anything but (periodic) metals
  | Electronic free energy        :          -0.96140624 Ha         -26.16119491 eV

  Derived energy quantities:
  | Kinetic energy                :           1.40991620 Ha          38.36577193 eV
  | Electrostatic energy          :          -1.61767722 Ha         -44.01923684 eV
  | Energy correction for multipole
  | error in Hartree potential    :          -0.00051993 Ha          -0.01414794 eV
  | Sum of eigenvalues per atom                           :          -9.06347302 eV
  | Total energy (T->0) per atom                          :         -13.08059746 eV  <-- do not rely on this value for anything but (periodic) metals
  | Electronic free energy per atom                       :         -13.08059746 eV

  Self-consistency convergence accuracy:
  | Change of charge/spin density : 0.8309E-01 0.2999E+00
  | Change of sum of eigenvalues  : 0.1745E+00 eV
  | Change of total energy        : -.1019E+01 eV

  End self-consistency iteration #     9       :  max(cpu_time)    wall_clock(cpu1)
  | Time for this iteration                    :        0.025 s           0.025 s
  | Charge density update                      :        0.006 s           0.006 s
  | Density mixing                             :        0.002 s           0.002 s
  | Hartree multipole update                   :        0.001 s           0.001 s
  | Hartree multipole summation                :        0.004 s           0.005 s
  | Integration                                :        0.009 s           0.008 s
  | Solution of K.-S. eqns.                    :        0.001 s           0.002 s
  | Total energy evaluation                    :        0.000 s           0.001 s
------------------------------------------------------------

------------------------------------------------------------
          Begin self-consistency iteration #   10

  Date     :  20220120, Time     :  153403.700
------------------------------------------------------------
  Evaluating new KS density.
  Integration grid: deviation in total charge (<rho> - N_e) =   1.767678E-07
  | <rho_up-rho_dn> = N_up-N_dn =     -1.3514; <|rho_up-rho_dn|> =      1.4473
  Pulay mixing of updated and previous charge densities.

  Evaluating partitioned Hartree potential by multipole expansion.
  | Analytical far-field extrapolation by fixed multipoles:
  | Hartree multipole sum: apparent total charge =   0.166500E-04
  Summing up the Hartree potential.
  Time summed over all CPUs for potential: real work        0.033 s, elapsed        0.033 s
  | RMS charge density error from multipole expansion :   0.308810E-01

  Integrating Hamiltonian matrix: batch-based integration.
  Time summed over all CPUs for integration: real work        0.063 s, elapsed        0.066 s

  Updating Kohn-Sham eigenvalues, eigenvectors, occupation numbers, and Fermi level.
  Solving generalized eigenproblem
  Solving real symmetric generalised eigenvalue problem by standard ScaLAPACK.
  Using Cholesky factor for transformation
  Using 1-stage real ELPA solver
  Solving real symmetric generalised eigenvalue problem by standard ScaLAPACK.
  Using Cholesky factor for transformation
  Using 1-stage real ELPA solver
  Determining occupation numbers for Kohn-Sham eigenstates.
  | Chemical potential (Fermi level) in eV                 : -.54116185E+01
  | Error in electron count due to remaining E_F inaccuracy: 0.00000000E+00
  | Maximum occupation number of highest empty state:  0.00E+00

  Current spin moment of the entire structure :
  | N = N_up - N_down :    0.00
  | S                 :    0.00
  | J                 :    1.00

  Highest occupied state (VBM) at     -6.17764253 eV
  | Occupation number:      1.00000000
  | Spin channel:        2

  Lowest unoccupied state (CBM) at     2.51804285 eV
  | Occupation number:      0.00000000
  | Spin channel:        1

  Overall HOMO-LUMO gap:      8.69568537 eV.

  Total energy components:
  | Sum of eigenvalues            :          -0.51865522 Ha         -14.11332669 eV
  | XC energy correction          :          -3.04532546 Ha         -82.86752202 eV
  | XC potential correction       :           3.94769114 Ha         107.42214161 eV
  | Free-atom electrostatic energy:          -0.36986292 Ha         -10.06448219 eV
  | Hartree energy correction     :          -3.16112529 Ha         -86.01859573 eV
  | van der Waals energy corr.    :           0.00000000 Ha           0.00000000 eV
  | Entropy correction            :           0.00000000 Ha           0.00000000 eV
  | ---------------------------
  | Total energy                  :          -3.14727775 Ha         -85.64178502 eV
  | Total energy, T -> 0          :          -3.14727775 Ha         -85.64178502 eV  <-- do not rely on this value for anything but (periodic) metals
  | Electronic free energy        :          -3.14727775 Ha         -85.64178502 eV

  Derived energy quantities:
  | Kinetic energy                :           1.11303985 Ha          30.28735528 eV
  | Electrostatic energy          :          -1.21499214 Ha         -33.06161828 eV
  | Energy correction for multipole
  | error in Hartree potential    :          -0.00226852 Ha          -0.06172944 eV
  | Sum of eigenvalues per atom                           :          -7.05666335 eV
  | Total energy (T->0) per atom                          :         -42.82089251 eV  <-- do not rely on this value for anything but (periodic) metals
  | Electronic free energy per atom                       :         -42.82089251 eV

  Self-consistency convergence accuracy:
  | Change of charge/spin density : 0.3919E+00 0.4108E+00
  | Change of sum of eigenvalues  : 0.4014E+01 eV
  | Change of total energy        : -.5948E+02 eV

  End self-consistency iteration #    10       :  max(cpu_time)    wall_clock(cpu1)
  | Time for this iteration                    :        0.025 s           0.025 s
  | Charge density update                      :        0.006 s           0.006 s
  | Density mixing                             :        0.002 s           0.002 s
  | Hartree multipole update                   :        0.001 s           0.001 s
  | Hartree multipole summation                :        0.004 s           0.005 s
  | Integration                                :        0.008 s           0.008 s
  | Solution of K.-S. eqns.                    :        0.001 s           0.002 s
  | Total energy evaluation                    :        0.000 s           0.001 s
------------------------------------------------------------

------------------------------------------------------------
          Begin self-consistency iteration #   11

  Date     :  20220120, Time     :  153403.730
------------------------------------------------------------
  Evaluating new KS density.
  Integration grid: deviation in total charge (<rho> - N_e) =   3.484846E-08
  | <rho_up-rho_dn> = N_up-N_dn =     -0.0137; <|rho_up-rho_dn|> =      4.7902
  Pulay mixing of updated and previous charge densities.

  Evaluating partitioned Hartree potential by multipole expansion.
  | Analytical far-field extrapolation by fixed multipoles:
  | Hartree multipole sum: apparent total charge =  -0.778559E-06
  Summing up the Hartree potential.
  Time summed over all CPUs for potential: real work        0.033 s, elapsed        0.033 s
  | RMS charge density error from multipole expansion :   0.756238E-02

  Integrating Hamiltonian matrix: batch-based integration.
  Time summed over all CPUs for integration: real work        0.071 s, elapsed        0.073 s

  Updating Kohn-Sham eigenvalues, eigenvectors, occupation numbers, and Fermi level.
  Solving generalized eigenproblem
  Solving real symmetric generalised eigenvalue problem by standard ScaLAPACK.
  Using Cholesky factor for transformation
  Using 1-stage real ELPA solver
  Solving real symmetric generalised eigenvalue problem by standard ScaLAPACK.
  Using Cholesky factor for transformation
  Using 1-stage real ELPA solver
  Determining occupation numbers for Kohn-Sham eigenstates.
  | Chemical potential (Fermi level) in eV                 : -.12642945E+02
  | Error in electron count due to remaining E_F inaccuracy: 0.00000000E+00
  | Maximum occupation number of highest empty state:  0.00E+00

  Current spin moment of the entire structure :
  | N = N_up - N_down :    0.00
  | S                 :    0.00
  | J                 :    1.00

  Highest occupied state (VBM) at    -13.96081831 eV
  | Occupation number:      1.00000000
  | Spin channel:        2

  Lowest unoccupied state (CBM) at    -1.48731367 eV
  | Occupation number:      0.00000000
  | Spin channel:        1

  Overall HOMO-LUMO gap:     12.47350464 eV.

  Total energy components:
  | Sum of eigenvalues            :          -1.06684086 Ha         -29.03021693 eV
  | XC energy correction          :          -0.71254001 Ha         -19.38920015 eV
  | XC potential correction       :           0.91434134 Ha          24.88049375 eV
  | Free-atom electrostatic energy:          -0.36986292 Ha         -10.06448219 eV
  | Hartree energy correction     :           0.03120302 Ha           0.84907726 eV
  | van der Waals energy corr.    :           0.00000000 Ha           0.00000000 eV
  | Entropy correction            :           0.00000000 Ha           0.00000000 eV
  | ---------------------------
  | Total energy                  :          -1.20369944 Ha         -32.75432825 eV
  | Total energy, T -> 0          :          -1.20369944 Ha         -32.75432825 eV  <-- do not rely on this value for anything but (periodic) metals
  | Electronic free energy        :          -1.20369944 Ha         -32.75432825 eV

  Derived energy quantities:
  | Kinetic energy                :           0.25137749 Ha           6.84032947 eV
  | Electrostatic energy          :          -0.74253692 Ha         -20.20545757 eV
  | Energy correction for multipole
  | error in Hartree potential    :           0.00010892 Ha           0.00296373 eV
  | Sum of eigenvalues per atom                           :         -14.51510846 eV
  | Total energy (T->0) per atom                          :         -16.37716412 eV  <-- do not rely on this value for anything but (periodic) metals
  | Electronic free energy per atom                       :         -16.37716412 eV

[...]
  | Change of sum of eigenvalues  : 0.2125E-03 eV
  | Change of total energy        : -.3922E-07 eV

  End self-consistency iteration #    26       :  max(cpu_time)    wall_clock(cpu1)
  | Time for this iteration                    :        0.033 s           0.034 s
  | Charge density update                      :        0.007 s           0.008 s
  | Density mixing                             :        0.003 s           0.002 s
  | Hartree multipole update                   :        0.001 s           0.001 s
  | Hartree multipole summation                :        0.006 s           0.006 s
  | Integration                                :        0.013 s           0.013 s
  | Solution of K.-S. eqns.                    :        0.002 s           0.002 s
  | Total energy evaluation                    :        0.000 s           0.001 s
------------------------------------------------------------

------------------------------------------------------------
          Begin self-consistency iteration #   27

  Date     :  20220120, Time     :  153404.234
------------------------------------------------------------
  Evaluating new KS density.
  Integration grid: deviation in total charge (<rho> - N_e) =  -1.060729E-11
  | <rho_up-rho_dn> = N_up-N_dn =     -0.0000; <|rho_up-rho_dn|> =      0.0000
  Pulay mixing of updated and previous charge densities.

  Evaluating partitioned Hartree potential by multipole expansion.
  | Analytical far-field extrapolation by fixed multipoles:
  | Hartree multipole sum: apparent total charge =   0.234828E-06
  Summing up the Hartree potential.
  Time summed over all CPUs for potential: real work        0.033 s, elapsed        0.033 s
  | RMS charge density error from multipole expansion :   0.111409E-02

  Integrating Hamiltonian matrix: batch-based integration.
  Time summed over all CPUs for integration: real work        0.074 s, elapsed        0.077 s

  Updating Kohn-Sham eigenvalues, eigenvectors, occupation numbers, and Fermi level.
  Solving generalized eigenproblem
  Solving real symmetric generalised eigenvalue problem by standard ScaLAPACK.
  Using Cholesky factor for transformation
  Using 1-stage real ELPA solver
  Solving real symmetric generalised eigenvalue problem by standard ScaLAPACK.
  Using Cholesky factor for transformation
  Using 1-stage real ELPA solver
  Determining occupation numbers for Kohn-Sham eigenstates.
  | Chemical potential (Fermi level) in eV                 : -.85724261E+01
  | Error in electron count due to remaining E_F inaccuracy: 0.00000000E+00
  | Maximum occupation number of highest empty state:  0.00E+00

  Current spin moment of the entire structure :
  | N = N_up - N_down :    0.00
  | S                 :    0.00
  | J                 :    1.00

  Highest occupied state (VBM) at    -10.19758310 eV
  | Occupation number:      1.00000000
  | Spin channel:        1

  Lowest unoccupied state (CBM) at     0.38516078 eV
  | Occupation number:      0.00000000
  | Spin channel:        2

  Overall HOMO-LUMO gap:     10.58274388 eV.

  Total energy components:
  | Sum of eigenvalues            :          -0.74950870 Ha         -20.39516930 eV
  | XC energy correction          :          -0.67872385 Ha         -18.46901554 eV
  | XC potential correction       :           0.87131134 Ha          23.70958783 eV
  | Free-atom electrostatic energy:          -0.36986292 Ha         -10.06448219 eV
  | Hartree energy correction     :          -0.23942866 Ha          -6.51518522 eV
  | van der Waals energy corr.    :           0.00000000 Ha           0.00000000 eV
  | Entropy correction            :           0.00000000 Ha           0.00000000 eV
  | ---------------------------
  | Total energy                  :          -1.16621278 Ha         -31.73426442 eV
  | Total energy, T -> 0          :          -1.16621278 Ha         -31.73426442 eV  <-- do not rely on this value for anything but (periodic) metals
  | Electronic free energy        :          -1.16621278 Ha         -31.73426442 eV

  Derived energy quantities:
  | Kinetic energy                :           1.10492566 Ha          30.06655688 eV
  | Electrostatic energy          :          -1.59241459 Ha         -43.33180576 eV
  | Energy correction for multipole
  | error in Hartree potential    :          -0.00009858 Ha          -0.00268242 eV
  | Sum of eigenvalues per atom                           :         -10.19758465 eV
  | Total energy (T->0) per atom                          :         -15.86713221 eV  <-- do not rely on this value for anything but (periodic) metals
  | Electronic free energy per atom                       :         -15.86713221 eV

  Self-consistency convergence accuracy:
  | Change of charge/spin density : 0.2079E-05 0.1730E-05
  | Change of sum of eigenvalues  : -.2213E-04 eV
  | Change of total energy        : 0.1820E-09 eV

  End self-consistency iteration #    27       :  max(cpu_time)    wall_clock(cpu1)
  | Time for this iteration                    :        0.028 s           0.028 s
  | Charge density update                      :        0.008 s           0.007 s
  | Density mixing                             :        0.002 s           0.002 s
  | Hartree multipole update                   :        0.001 s           0.001 s
  | Hartree multipole summation                :        0.004 s           0.005 s
  | Integration                                :        0.010 s           0.010 s
  | Solution of K.-S. eqns.                    :        0.001 s           0.001 s
  | Total energy evaluation                    :        0.000 s           0.000 s
------------------------------------------------------------

------------------------------------------------------------
          Begin self-consistency iteration #   28

  Date     :  20220120, Time     :  153404.264
------------------------------------------------------------
  Evaluating new KS density.
  Integration grid: deviation in total charge (<rho> - N_e) =  -4.888978E-12
  | <rho_up-rho_dn> = N_up-N_dn =      0.0000; <|rho_up-rho_dn|> =      0.0000
  Pulay mixing of updated and previous charge densities.

  Evaluating partitioned Hartree potential by multipole expansion.
  | Analytical far-field extrapolation by fixed multipoles:
  | Hartree multipole sum: apparent total charge =   0.234639E-06
  Summing up the Hartree potential.
  Time summed over all CPUs for potential: real work        0.035 s, elapsed        0.042 s
  | RMS charge density error from multipole expansion :   0.111408E-02

  Integrating Hamiltonian matrix: batch-based integration.
  Time summed over all CPUs for integration: real work        0.077 s, elapsed        0.096 s

  Updating Kohn-Sham eigenvalues, eigenvectors, occupation numbers, and Fermi level.
  Solving generalized eigenproblem
  Solving real symmetric generalised eigenvalue problem by standard ScaLAPACK.
  Using Cholesky factor for transformation
  Using 1-stage real ELPA solver
  Solving real symmetric generalised eigenvalue problem by standard ScaLAPACK.
  Using Cholesky factor for transformation
  Using 1-stage real ELPA solver
  Determining occupation numbers for Kohn-Sham eigenstates.
  | Chemical potential (Fermi level) in eV                 : -.85746627E+01
  | Error in electron count due to remaining E_F inaccuracy: 0.00000000E+00
  | Maximum occupation number of highest empty state:  0.00E+00

  Current spin moment of the entire structure :
  | N = N_up - N_down :    0.00
  | S                 :    0.00
  | J                 :    1.00

  Highest occupied state (VBM) at    -10.19757940 eV
  | Occupation number:      1.00000000
  | Spin channel:        1

  Lowest unoccupied state (CBM) at     0.38512871 eV
  | Occupation number:      0.00000000
  | Spin channel:        2

  Overall HOMO-LUMO gap:     10.58270811 eV.

  Total energy components:
  | Sum of eigenvalues            :          -0.74950833 Ha         -20.39515936 eV
  | XC energy correction          :          -0.67872405 Ha         -18.46902102 eV
  | XC potential correction       :           0.87131163 Ha          23.70959583 eV
  | Free-atom electrostatic energy:          -0.36986292 Ha         -10.06448219 eV
  | Hartree energy correction     :          -0.23942911 Ha          -6.51519768 eV
  | van der Waals energy corr.    :           0.00000000 Ha           0.00000000 eV
  | Entropy correction            :           0.00000000 Ha           0.00000000 eV
  | ---------------------------
  | Total energy                  :          -1.16621278 Ha         -31.73426442 eV
  | Total energy, T -> 0          :          -1.16621278 Ha         -31.73426442 eV  <-- do not rely on this value for anything but (periodic) metals
  | Electronic free energy        :          -1.16621278 Ha         -31.73426442 eV

  Derived energy quantities:
  | Kinetic energy                :           1.10492571 Ha          30.06655820 eV
  | Electrostatic energy          :          -1.59241444 Ha         -43.33180160 eV
  | Energy correction for multipole
  | error in Hartree potential    :          -0.00009858 Ha          -0.00268254 eV
  | Sum of eigenvalues per atom                           :         -10.19757968 eV
  | Total energy (T->0) per atom                          :         -15.86713221 eV  <-- do not rely on this value for anything but (periodic) metals
  | Electronic free energy per atom                       :         -15.86713221 eV

  Self-consistency convergence accuracy:
  | Change of charge/spin density : 0.7451E-06 0.6081E-06
  | Change of sum of eigenvalues  : 0.9946E-05 eV
  | Change of total energy        : -.5751E-09 eV

  Writing Kohn-Sham eigenvalues.

  Spin-up eigenvalues:

  State    Occupation    Eigenvalue [Ha]    Eigenvalue [eV]
      1       1.00000          -0.374754          -10.19758
      2       0.00000           0.014153            0.38513
      3       0.00000           0.046312            1.26021
      4       0.00000           0.158570            4.31491
      5       0.00000           0.315083            8.57385
      6       0.00000           0.315083            8.57385
      7       0.00000           0.369803           10.06286
      8       0.00000           0.548118           14.91505
      9       0.00000           0.742286           20.19862
     10       0.00000           0.758134           20.62988
     11       0.00000           0.758134           20.62988

  Spin-down eigenvalues:

  State    Occupation    Eigenvalue [Ha]    Eigenvalue [eV]
      1       1.00000          -0.374754          -10.19758
      2       0.00000           0.014153            0.38513
      3       0.00000           0.046312            1.26020
      4       0.00000           0.158570            4.31491
      5       0.00000           0.315083            8.57385
      6       0.00000           0.315083            8.57385
      7       0.00000           0.369803           10.06285
      8       0.00000           0.548118           14.91505
      9       0.00000           0.742286           20.19862
     10       0.00000           0.758134           20.62988
     11       0.00000           0.758134           20.62988

  Current spin moment of the entire structure :
  | N = N_up - N_down :    0.00
  | S                 :    0.00
  | J                 :    1.00

  Highest occupied state (VBM) at    -10.19757940 eV
  | Occupation number:      1.00000000
  | Spin channel:        1

  Lowest unoccupied state (CBM) at     0.38512871 eV
  | Occupation number:      0.00000000
  | Spin channel:        2

  Overall HOMO-LUMO gap:     10.58270811 eV.

  Self-consistency cycle converged.

  End self-consistency iteration #    28       :  max(cpu_time)    wall_clock(cpu1)
  | Time for this iteration                    :        0.032 s           0.032 s
  | Charge density update                      :        0.008 s           0.007 s
  | Density mixing                             :        0.002 s           0.002 s
  | Hartree multipole update                   :        0.001 s           0.001 s
  | Hartree multipole summation                :        0.006 s           0.006 s
  | Integration                                :        0.012 s           0.012 s
  | Solution of K.-S. eqns.                    :        0.001 s           0.002 s
  | Total energy evaluation                    :        0.000 s           0.001 s
------------------------------------------------------------
  Obtaining max. number of non-zero basis functions in each batch .
  Evaluating KS electron density on previously omitted grid points.
  Evaluating non-empirical van der Waals correction (Tkatchenko/Scheffler 2009).
  Performing Hirshfeld analysis of fragment charges and moments.
  ----------------------------------------------------------------------
  | Atom     1: H
  |   Hirshfeld charge        :     -0.00000059
  |   Free atom volume        :     10.31539447
  |   Hirshfeld volume        :      5.51081794
  |   Hirshfeld spin moment   :     -0.00000000
  |   Hirshfeld dipole vector :      0.00000000       0.00000000      -0.08280985
  |   Hirshfeld dipole moment :      0.08280985
  |   Hirshfeld second moments:      0.11434618       0.00000000       0.00000000
  |                                  0.00000000       0.11434618      -0.00000000
  |                                  0.00000000      -0.00000000       0.11465490
  ----------------------------------------------------------------------
  | Atom     2: H
  |   Hirshfeld charge        :     -0.00000059
  |   Free atom volume        :     10.31539447
  |   Hirshfeld volume        :      5.51081794
  |   Hirshfeld spin moment   :     -0.00000000
  |   Hirshfeld dipole vector :      0.00000000      -0.00000000       0.08280985
  |   Hirshfeld dipole moment :      0.08280985
  |   Hirshfeld second moments:      0.11434618       0.00000000       0.00000000
  |                                  0.00000000       0.11434618       0.00000000
  |                                  0.00000000       0.00000000       0.11465490
  ----------------------------------------------------------------------


  Total energy components:
  | Sum of eigenvalues            :          -0.74950833 Ha         -20.39515936 eV
  | XC energy correction          :          -0.67872405 Ha         -18.46902102 eV
  | XC potential correction       :           0.87131163 Ha          23.70959583 eV
  | Free-atom electrostatic energy:          -0.36986292 Ha         -10.06448219 eV
  | Hartree energy correction     :          -0.23942911 Ha          -6.51519768 eV
  | van der Waals energy corr.    :          -0.00000019 Ha          -0.00000517 eV
  | Entropy correction            :           0.00000000 Ha           0.00000000 eV
  | ---------------------------
  | Total energy                  :          -1.16621297 Ha         -31.73426959 eV
  | Total energy, T -> 0          :          -1.16621297 Ha         -31.73426959 eV  <-- do not rely on this value for anything but (periodic) metals
  | Electronic free energy        :          -1.16621297 Ha         -31.73426959 eV

  Derived energy quantities:
  | Kinetic energy                :           1.10492571 Ha          30.06655820 eV
  | Electrostatic energy          :          -1.59241444 Ha         -43.33180160 eV
  | Energy correction for multipole
  | error in Hartree potential    :          -0.00009858 Ha          -0.00268254 eV
  | Sum of eigenvalues per atom                           :         -10.19757968 eV
  | Total energy (T->0) per atom                          :         -15.86713480 eV  <-- do not rely on this value for anything but (periodic) metals
  | Electronic free energy per atom                       :         -15.86713480 eV
  Timings for VdW correction (Tkatchenko-Scheffler 2009 or later):
  | CPU time:        0.004 s, Wall clock time:        0.004 s.

  Energy and forces in a compact form:
  | Total energy uncorrected      :         -0.317342695921012E+02 eV
  | Total energy corrected        :         -0.317342695921012E+02 eV  <-- do not rely on this value for anything but (periodic) metals
  | Electronic free energy        :         -0.317342695921012E+02 eV

  ------------------------------------ 
  Start decomposition of the XC Energy 
  ------------------------------------ 
  Hartree-Fock part   :          0.000000000 Ha              0.000000000 eV
  ------------------------------------ 
  X Energy            :         -0.636002718 Ha            -17.306514493 eV
  C Energy GGA        :         -0.042721330 Ha             -1.162506530 eV
  Total XC Energy     :         -0.678724047 Ha            -18.469021024 eV
  LDA X and C from self-consistent density 
  X Energy LDA        :         -0.555912451 Ha            -15.127147460 eV
  C Energy LDA        :         -0.093753475 Ha             -2.551161865 eV
  ------------------------------------ 
  End decomposition of the XC Energy 
  ------------------------------------ 

------------------------------------------------------------------------------
  Final output of selected total energy values:

  The following output summarizes some interesting total energy values
  at the end of a run (AFTER all relaxation, molecular dynamics, etc.).

  | Total energy of the DFT / Hartree-Fock s.c.f. calculation      :            -31.734269592 eV
  | Final zero-broadening corrected energy (caution - metals only) :            -31.734269592 eV
  | For reference only, the value of 1 Hartree used in FHI-aims is :             27.211384500 eV

  Before relying on these values, please be sure to understand exactly which
  total energy value is referred to by a given number. Different objects may
  all carry the same name 'total energy'. Definitions:

  Total energy of the DFT / Hartree-Fock s.c.f. calculation:
  | Note that this energy does not include ANY quantities calculated after the
  | s.c.f. cycle, in particular not ANY RPA, MP2, etc. many-body perturbation terms.

  Final zero-broadening corrected energy:
  | For metallic systems only, a broadening of the occupation numbers at the Fermi
  | level can be extrapolated back to zero broadening by an electron-gas inspired
  | formula. For all systems that are not real metals, this value can be
  | meaningless and should be avoided.

------------------------------------------------------------------------------

------------------------------------------------------------
          Leaving FHI-aims.
          Date     :  20220120, Time     :  153404.309

          Computational steps:
          | Number of self-consistency cycles          :           28

          Detailed time accounting                     :  max(cpu_time)    wall_clock(cpu1)
          | Total time                                 :        0.978 s           1.095 s
          | Preparation time                           :        0.080 s           0.080 s
          | Grid partitioning                          :        0.007 s           0.007 s
          | Preloading free-atom quantities on grid    :        0.005 s           0.005 s
          | Free-atom superposition energy             :        0.003 s           0.003 s
          | Total time for integrations                :        0.298 s           0.297 s
          | Total time for solution of K.-S. equations :        0.053 s           0.058 s
          | Total time for density update              :        0.200 s           0.184 s
          | Total time for mixing                      :        0.051 s           0.049 s
          | Total time for Hartree multipole update    :        0.038 s           0.042 s
          | Total time for Hartree multipole sum       :        0.141 s           0.145 s
          | Total time for total energy evaluation     :        0.005 s           0.018 s
          | Total time for scaled ZORA corrections     :        0.000 s           0.000 s
          | Total time for vdW correction              :        0.004 s           0.004 s

          Have a nice day.
------------------------------------------------------------
