  MPI-parallelism will be employed.
------------------------------------------------------------
          Invoking FHI-aims ...
          Version 052014
          Git rev. (modified): 096c982 Merge branch master of fhiaims:/pub/localo[...]
          Compiled on 2016/12/16 at 15:22:01 on host login02.hpc.iitd.ac.in.

          When using FHI-aims, please cite the following reference:

          Volker Blum, Ralf Gehrke, Felix Hanke, Paula Havu,
          Ville Havu, Xinguo Ren, Karsten Reuter, and Matthias Scheffler,
          'Ab Initio Molecular Simulations with Numeric Atom-Centered Orbitals: FHI-aims',
          Computer Physics Communications 180, 2175-2196 (2009)

          For any questions about FHI-aims, please visit the aimsclub website
          with its forums and wiki. Contributions to both the forums and the
          wiki are warmly encouraged - they are for you, and everyone is welcome there.

------------------------------------------------------------

  Date     :  20220120, Time     :  153403.224
  Time zero on CPU 1             :   0.130510000000000E-01  s.
  Internal wall clock time zero  :           411924843.224  s.

  Using        8 parallel tasks.
  Task        0 on host csky010 reporting.
  Task        1 on host csky010 reporting.
  Task        2 on host csky010 reporting.
  Task        3 on host csky010 reporting.
  Task        4 on host csky010 reporting.
  Task        5 on host csky010 reporting.
  Task        6 on host csky010 reporting.
  Task        7 on host csky010 reporting.

  Performing system and environment tests:
  | Environment variable OMP_NUM_THREADS correctly set to 1.
  | Stacksize not measured: no C compiler
  | Checking for scalapack...
  | Testing pdtran()...
  | All pdtran() tests passed.

  Obtaining array dimensions for all initial allocations:
  
  -----------------------------------------------------------------------
  Parsing control.in (first pass over file, find array dimensions only).
  The contents of control.in will be repeated verbatim below
  unless switched off by setting 'verbatim_writeout .false.' .
  in the first line of control.in .
  -----------------------------------------------------------------------
  
    xc               pbe
    spin             collinear
    default_initial_moment hund
    relativistic     atomic_zora scalar 1e-9
    occupation_type  gaussian 0.001
    charge        0
    vdw_correction_hirshfeld
    KS_method        scalapack_fast
    mixer            pulay
    charge_mix_param  0.4
    spin_mix_param    0.6
    sc_accuracy_rho  1E-4
    sc_accuracy_eev  1E-5
    sc_accuracy_etot 1E-5
    sc_iter_limit    100
    empty_states     10
  ################################################################################
  #
  #  FHI-aims code project
  # Volker Blum, Fritz Haber Institute Berlin, 2009
  #
  #  Suggested "tight" defaults for H atom (to be pasted into control.in file)
  #
  ################################################################################
    species        H
  #     global species definitions
      nucleus             1
      mass                1.00794
  #
      l_hartree           6
  #
      cut_pot             4.0  2.0  1.0
      basis_dep_cutoff    1e-4
  #
      radial_base         24 7.0
      radial_multiplier   2
      angular_grids       specified
        division   0.1930   50
        division   0.3175  110
        division   0.4293  194
        division   0.5066  302
        division   0.5626  434
  #      division   0.5922  590
  #      division   0.6227  974
  #      division   0.6868 1202
  #      outer_grid  770
        outer_grid  434
  ################################################################################
  #
  #  Definition of "minimal" basis
  #
  ################################################################################
  #     valence basis states
      valence      1  s   1.
  #     ion occupancy
      ion_occ      1  s   0.5
  ################################################################################
  #
  #  Suggested additional basis functions. For production calculations,
  #  uncomment them one after another (the most important basis functions are
  #  listed first).
  #
  #  Basis constructed for dimers: 0.5 A, 0.7 A, 1.0 A, 1.5 A, 2.5 A
  #
  ################################################################################
  #  "First tier" - improvements: -1014.90 meV to -62.69 meV
       hydro 2 s 2.1
       hydro 2 p 3.5
  #  "Second tier" - improvements: -12.89 meV to -1.83 meV
       hydro 1 s 0.85
       hydro 2 p 3.7
       hydro 2 s 1.2
       hydro 3 d 7
  #  "Third tier" - improvements: -0.25 meV to -0.12 meV
  #     hydro 4 f 11.2
  #     hydro 3 p 4.8
  #     hydro 4 d 9
  #     hydro 3 s 3.2
  ################################################################################
  #
  # For methods that use the localized form of the "resolution of identity" for
  # the two-electron Coulomb operator (RI_method LVL), particularly Hartree-Fock and
  # hybrid density functional calculations, the highest accuracy can be obtained by
  # uncommenting the line beginning with "for_aux"  below, thus adding an extra g radial
  # function to the construction of the product basis set for the expansion.
  # See Ref. New J. Phys. 17, 093020 (2015) for more information, particularly Figs. 1 and 6.
  #
  ################################################################################
  #
  # for_aux hydro 5 g 6.0
  
  -----------------------------------------------------------------------
  Completed first pass over input file control.in .
  -----------------------------------------------------------------------
  
  
  -----------------------------------------------------------------------
  Parsing geometry.in (first pass over file, find array dimensions only).
  The contents of geometry.in will be repeated verbatim below
  unless switched off by setting 'verbatim_writeout .false.' .
  in the first line of geometry.in .
  -----------------------------------------------------------------------
  
  atom 0 0 0 H
  atom 0 0 0.33 H
  
  -----------------------------------------------------------------------
  Completed first pass over input file geometry.in .
  -----------------------------------------------------------------------
  

  Basic array size parameters:
  | Number of species                 :        1
  | Number of atoms                   :        2
  | Max. basis fn. angular momentum   :        2
  | Max. atomic/ionic basis occupied n:        1
  | Max. number of basis fn. types    :        2
  | Max. radial fns per species/type  :        6
  | Max. logarithmic grid size        :     1131
  | Max. radial integration grid size :       49
  | Max. angular integration grid size:      434
  | Max. angular grid division number :        8
  | Radial grid for Hartree potential :     1131
  | Number of spin channels           :        2

------------------------------------------------------------
          Reading file control.in.
------------------------------------------------------------
  XC: Using PBE gradient-corrected functionals.
  Spin treatment: Spin density functional theory - collinear spins.
  Initial spin moment per atom set according to Hund's rules.
  Scalar relativistic treatment of kinetic energy: on-site free-atom approximation to ZORA.
  Occupation type: Gaussian broadening, width =   0.100000E-02 eV.
  Charge =   0.000000E+00: Neutral system requested explicitly.
  Using non-empirical van der Waals correction (Hirshfeld partitioning):
  Kohn-Sham eigenvalues and eigenfunctions calculated by the ELPA eigensolver library.
  Using pulay charge density mixing.
  Charge density mixing - mixing parameter:     0.4000
  Spin density mixing - mixing parameter:     0.6000
  Convergence accuracy of self-consistent charge density: 0.1000E-03
  Convergence accuracy of sum of eigenvalues: 0.1000E-04
  Convergence accuracy of total energy: 0.1000E-04
  Maximum number of s.-c. iterations  :   100
  Number of empty states per atom:       10
 
  Reading configuration options for species H                   .
  | Found nuclear charge :   1.0000
  | Found atomic mass :    1.00794000000000      amu
  | Found l_max for Hartree potential  :   6
  | Found cutoff potl. onset [A], width [A], scale factor :    4.00000    2.00000    1.00000
  | Threshold for basis-dependent cutoff potential is   0.100000E-03
  | Found data for basic radial integration grid :    24 points, outermost radius =    7.000 A
  | Found multiplier for basic radial grid :   2
  | Found angular grid specification: user-specified.
  | Specified grid contains     6 separate shells.
  | Check grid settings after all constraints further below.
  | Found free-atom valence shell :  1 s   1.000
  | No ionic wave fns used. Skipping ion_occ.
  | Found hydrogenic basis function :  2 s   2.100
  | Found hydrogenic basis function :  2 p   3.500
  | Found hydrogenic basis function :  1 s   0.850
  | Found hydrogenic basis function :  2 p   3.700
  | Found hydrogenic basis function :  2 s   1.200
  | Found hydrogenic basis function :  3 d   7.000
  Species H                   : Missing cutoff potential type.
  Defaulting to exp(1/x)/(1-x)^2 type cutoff potential.
  Species H : No 'logarithmic' tag. Using default grid for free atom:
  | Default logarithmic grid data [bohr] : 0.1000E-03 0.1000E+03 0.1012E+01
  Species H : On-site basis accuracy parameter (for Gram-Schmidt orthonormalisation) not specified.
  Using default value basis_acc =  0.1000000E-03.
  Species H                   : Using default innermost maximum threshold i_radial=  2 for radial functions.
  Species H                   : Default cutoff onset for free atom density etc. : 0.40000000E+01 AA.
  Species H                   : Basic radial grid will be enhanced according to radial_multiplier =   2, to contain    49 grid points.
 
  Finished reading input file 'control.in'. Consistency checks are next.
 
  Target number of points in a grid batch is not set. Defaulting to  100
  Method for grid partitioning is not set. Defaulting to parallel hash+maxmin partitioning.
  Batch size limit is not set. Defaulting to    200
  By default, will store active basis functions for each batch.
  If in need of memory, prune_basis_once .false. can be used to disable this option.
  communication_type for Hartree potential was not specified.
  Defaulting to calc_hartree .
  Pulay mixer: Number of relevant iterations not set.
  Defaulting to    8 iterations.
  Pulay mixer: Number of initial linear mixing iterations not set.
  Defaulting to    0 iterations.
  Work space size for distributed Hartree potential not set.
  Defaulting to   0.200000E+03 MB.
  Algorithm-dependent basis array size parameters:
  | n_max_pulay                         :        8
  Calculation of forces was not defined in control.in. No forces will be calculated.
  Geometry relaxation not requested: no relaxation will be performed.
  No accuracy limit for integral partition fn. given. Defaulting to 0.1000E-14.
  No threshold value for u(r) in integrations given. Defaulting to 0.1000E-05.
  No accuracy for occupation numbers given. Defaulting to 0.1000E-07.
  No threshold value for occupation numbers given. Defaulting to 0.0000E+00.
  No accuracy for fermi level given. Defaulting to 0.1000E-19.
  Maximum # of iterations to find E_F not set. Defaulting to  200.
  Will not use alltoall communication since running on < 1024 CPUs.
  Threshold for basis singularities not set.
  Default threshold for basis singularities: 0.1000E-04
  partition_type (choice of integration weights) for integrals was not specified.
  | Using a version of the partition function of Stratmann and coworkers ('stratmann_smoother').
  | At each grid point, the set of atoms used to build the partition table is smoothly restricted to
  | only those atoms whose free-atom density would be non-zero at that grid point.
  Partitioning for Hartree potential was not defined. Using partition_type for integrals.
  | Adjusted default value of keyword multip_moments_threshold to:       0.10000000E-11
  | This value may affect high angular momentum components of the Hartree potential in periodic systems.
  No q(lm)/r^(l+1) cutoff set for long-range Hartree potential.
  | Using default value of  0.100000E-09 .
  | Verify using the multipole_threshold keyword.
  Defaulting to new monopole extrapolation.
  Density update method: automatic selection selected.
------------------------------------------------------------


------------------------------------------------------------
          Reading geometry description geometry.in.
------------------------------------------------------------
  Input structure read successfully.
  The structure contains        2 atoms,  and a total of          2.000 electrons.

  Input geometry:
  | No unit cell requested.
  | Atomic structure:
  |       Atom                x [A]            y [A]            z [A]
  |    1: Species H              0.000000         0.000000         0.000000
  |    2: Species H              0.000000         0.000000         0.330000
  |

  | The smallest distance between any two atoms is         0.33000000 AA.
  |
  | The first atom of this pair is atom number                      1 .
  | The second atom of this pair is atom number                     2 .

  Initial moments and charges:
  |  Atom   Moment         Charge        Species
  |     1  (Hund's rule)   0.000000E+00   H
  |     2  (Hund's rule)   0.000000E+00   H

  Structure-dependent array size parameters: 
  | Number of distinct atom types in initial rho :        1
  | Maximum number of distinct radial functions  :        7
  | Maximum number of basis functions            :       30
  | Number of Kohn-Sham states (occupied + empty):       11
------------------------------------------------------------

------------------------------------------------------------
          Preparing all fixed parts of the calculation.
------------------------------------------------------------
  Determining machine precision:
    2.225073858507201E-308
  Setting up grids for atomic and cluster calculations.

  Creating wave function, potential, and density for free atoms.

  Species: H

  List of occupied orbitals and eigenvalues:
    n    l              occ      energy [Ha]    energy [eV]
    1    0           1.0000        -0.238386        -6.4868

  Spin-polarized or charged system:
  Charge density initialized according to selected moments and charges.

  Creating spin-polarized density from free atoms.

  Species: H
  Charge:   0.000000
  applying Hund's rules ...

  List of occupied orbitals and eigenvalues:
    n    l      energy [Ha]    energy [eV]    occupation
  Spin-up
    1    0        -0.278991        -7.5917     1.00000000
  Spin-down
    1    0         0.090850         2.4721     0.00000000

  Creating fixed part of basis set: Ionic, confined, hydrogenic.
 
  H                    hydrogenic:
 
  List of hydrogenic basis orbitals: 
    n    l      effective z      eigenvalue [eV]  inner max. [A]     outer max. [A]     outer radius [A]   
    2    0         2.100000       -14.9965           0.193243           1.317208           5.373006
    2    1         3.500000       -41.6672           0.602369           0.602369           4.056063
    1    0         0.850000        -9.8292           0.624871           0.624871           5.373006
    2    1         3.700000       -46.5653           0.573622           0.573622           3.910002
    2    0         1.200000        -4.5995           0.334980           2.228188           5.505995
    3    2         7.000000       -74.0753           0.680699           0.680699           3.769201
 

  Adding cutoff potential to free-atom effective potential.
  Creating atomic-like basis functions for current effective potential.

  Species H                   :

  List of atomic basis orbitals and eigenvalues:
    n    l      energy [Ha]    energy [eV]    outer radius [A]
    1    0        -0.238386        -6.4868       5.373006

  Assembling full basis from fixed parts.
  | Species H :   atomic orbital   1 s accepted.
  | Species H :    hydro orbital   2 s accepted.
  | Species H :    hydro orbital   1 s accepted.
  | Species H :    hydro orbital   2 s accepted.
  | Species H :    hydro orbital   2 p accepted.
  | Species H :    hydro orbital   2 p accepted.
  | Species H :    hydro orbital   3 d accepted.
 
  Basis size parameters after reduction:
  | Total number of radial functions:        7
  | Total number of basis functions :       30
 
  Testing on-site integration grid accuracy.
  |  Species  Function  <phi|h_atom|phi> (log., in eV)  <phi|h_atom|phi> (rad., in eV)
           1        1                 -6.4870767962                 -6.4871688290
           1        2                 13.5032046589                 13.5028982997
           1        3                 32.8195184817                 32.8119941656
           1        4                 33.8513856511                 33.7670005767 ***
           1        5                 28.8544614965                 28.8544615203
           1        6                 59.6326952547                 59.6327656460
           1        7                 60.2719308513                 60.2719305949
 * Note: Onsite integrals marked "***" above are less accurate than
 * onsite_accuracy_threshold =    0.03000 eV. Usually, this is harmless.
 * When in doubt, tighten the "radial" and/or "radial_multiplier" flags to check.

  Preparing densities etc. for the partition functions (integrals / Hartree potential).

  Preparations completed.
  max(cpu_time)          :      0.084 s.
  Wall clock time (cpu1) :      0.083 s.
------------------------------------------------------------

------------------------------------------------------------
          Begin self-consistency loop: Initialization.

          Date     :  20220120, Time     :  153403.367
------------------------------------------------------------

  Initializing index lists of integration centers etc. from given atomic structure:
  | Number of centers in hartree potential         :         2
  | Number of centers in hartree multipole         :         2
  | Number of centers in electron density summation:         2
  | Number of centers in basis integrals           :         2
  | Number of centers in integrals                 :         2
  Using modified Scalapack Eigenvalue solver (ELPA)
  * Using 8 tasks for Scalapack Eigenvalue solver.
  Detailed listing of tasks and assigned k-points:
  (for non-periodic systems, the "k-point" denotes an internal label only)
   Task     0 k-point     1 on csky010
   Task     1 k-point     1 on csky010
   Task     2 k-point     1 on csky010
   Task     3 k-point     1 on csky010
   Task     4 k-point     1 on csky010
   Task     5 k-point     1 on csky010
   Task     6 k-point     1 on csky010
   Task     7 k-point     1 on csky010
  Tasks:     8 split into      4 X      2 BLACS grid
  Calculating blocksize based on n_basis =           30 max_nprow =            4 max_npcol =            2
  Scalapack blocksize set to:            4
  Required Scalapack workspace - INTEGER:            1 REAL:             1
  Partitioning the integration grid into batches with parallel hashing+maxmin method.
  | Number of batches:      442
  | Maximal batch size:     197
  | Minimal batch size:      49
  | Average batch size:      65.385
  | Standard deviation of batch sizes:      18.666

  Integration load balanced across     8 MPI tasks.
  Work distribution over tasks is as follows:
  Task     0 has       3596 integration points.
  Task     1 has       3579 integration points.
  Task     2 has       3584 integration points.
  Task     3 has       3588 integration points.
  Task     4 has       3662 integration points.
  Task     5 has       3588 integration points.
  Task     6 has       3623 integration points.
  Task     7 has       3680 integration points.
  Initializing partition tables, free-atom densities, potentials, etc. across the integration grid (initialize_grid_storage).
  | initialize_grid_storage: Actual outermost partition radius vs. multipole_radius_free
  | (-- VB: in principle, multipole_radius_free should be larger, hence this output)
  | Species        1: outer_partition_radius =              6.000000000000000 AA, multipole_radius_free =              6.071692442739658 AA.
  | Original list of interatomic distances with           2 x          2 entries is created.
  | Net number of integration points:    28900
  | of which are non-zero points    :    25640
  Obtaining max. number of non-zero basis functions in each batch (get_n_compute_maxes).
  | Maximal number of non-zero basis functions:       30 in task     0
  | Maximal number of non-zero basis functions:       30 in task     1
  | Maximal number of non-zero basis functions:       30 in task     2
  | Maximal number of non-zero basis functions:       30 in task     3
  | Maximal number of non-zero basis functions:       30 in task     4
  | Maximal number of non-zero basis functions:       30 in task     5
  | Maximal number of non-zero basis functions:       30 in task     6
  | Maximal number of non-zero basis functions:       30 in task     7
  Selecting the method for density update.
  Loop over occupied states selected for charge density update.
  Integrating Hamiltonian matrix: batch-based integration.
  Time summed over all CPUs for integration: real work        0.083 s, elapsed        0.090 s
  Integrating overlap matrix.
  Time summed over all CPUs for integration: real work        0.021 s, elapsed        0.030 s
  Deallocating overlap matrix.

  Updating Kohn-Sham eigenvalues, eigenvectors, occupation numbers, and Fermi level.
  Solving generalized eigenproblem
  Solving real symmetric generalised eigenvalue problem by standard ScaLAPACK.
  Transforming overlap matrix with ScaLAPACK and checking for singularities.
  : Overlap matrix is nonsingular, using Cholesky decomposition
  | Lowest eigenvalue:  0.350775E-04
  Factoring overlap matrix with Cholesky decomposition
  Using Cholesky factor for transformation
  Using 1-stage real ELPA solver
  Solving real symmetric generalised eigenvalue problem by standard ScaLAPACK.
  Using Cholesky factor for transformation
  Using 1-stage real ELPA solver
  Determining occupation numbers for Kohn-Sham eigenstates.
  | Chemical potential (Fermi level) in eV                 : -.14917978E+00
  | Error in electron count due to remaining E_F inaccuracy: 0.00000000E+00
  | Maximum occupation number of highest empty state:  0.00E+00

  Writing Kohn-Sham eigenvalues.

  Spin-up eigenvalues:

  State    Occupation    Eigenvalue [Ha]    Eigenvalue [eV]
      1       1.00000          -0.877053          -23.86583
      2       1.00000          -0.010662           -0.29013
      3       0.00000           0.000070            0.00189
      4       0.00000           0.150862            4.10517
      5       0.00000           0.200630            5.45941
      6       0.00000           0.200630            5.45941
      7       0.00000           0.247633            6.73844
      8       0.00000           0.617758           16.81005
      9       0.00000           0.631801           17.19219
     10       0.00000           0.631801           17.19219
     11       0.00000           0.705659           19.20195

  Spin-down eigenvalues:

  State    Occupation    Eigenvalue [Ha]    Eigenvalue [eV]
      1       0.00000           0.099217            2.69984
      2       0.00000           0.109029            2.96682
      3       0.00000           0.522920           14.22936
      4       0.00000           0.524182           14.26372
      5       0.00000           1.094173           29.77395
      6       0.00000           1.210042           32.92693
      7       0.00000           1.210042           32.92693
      8       0.00000           1.291953           35.15583
      9       0.00000           1.291953           35.15583
     10       0.00000           1.490843           40.56791
     11       0.00000           1.776482           48.34054

  Current spin moment of the entire structure :
  | N = N_up - N_down :    2.00
  | S                 :    1.00
  | J                 :    3.00

  Highest occupied state (VBM) at     -0.29013222 eV
  | Occupation number:      1.00000000
  | Spin channel:        1

  Lowest unoccupied state (CBM) at     0.00189364 eV
  | Occupation number:      0.00000000
  | Spin channel:        1

  Overall HOMO-LUMO gap:      0.29202586 eV.
  Calculating total energy contributions from superposition of free atom densities.

  Total energy components:
  | Sum of eigenvalues            :          -0.88771540 Ha         -24.15596494 eV
  | XC energy correction          :          -0.73081091 Ha         -19.88637663 eV
  | XC potential correction       :           0.94368472 Ha          25.67896785 eV
  | Free-atom electrostatic energy:           0.46889046 Ha          12.75915847 eV
  | Hartree energy correction     :           0.00000000 Ha           0.00000000 eV
  | van der Waals energy corr.    :           0.00000000 Ha           0.00000000 eV
  | Entropy correction            :           0.00000000 Ha           0.00000000 eV
  | ---------------------------
  | Total energy                  :          -0.20595113 Ha          -5.60421525 eV
  | Total energy, T -> 0          :          -0.20595113 Ha          -5.60421525 eV  <-- do not rely on this value for anything but (periodic) metals
  | Electronic free energy        :          -0.20595113 Ha          -5.60421525 eV

  Derived energy quantities:
  | Kinetic energy                :           1.30291810 Ha          35.45420552 eV
  | Electrostatic energy          :          -0.77805832 Ha         -21.17204414 eV
  | Energy correction for multipole
  | error in Hartree potential    :           0.00000000 Ha           0.00000000 eV
  | Sum of eigenvalues per atom                           :         -12.07798247 eV
  | Total energy (T->0) per atom                          :          -2.80210763 eV  <-- do not rely on this value for anything but (periodic) metals
  | Electronic free energy per atom                       :          -2.80210763 eV
  Initialize hartree_potential_storage
  Max. number of atoms included in rho_multipole:            2

  End scf initialization - timings             :  max(cpu_time)    wall_clock(cpu1)
  | Time for scf. initialization               :        0.045 s           0.045 s
  | Boundary condition initialization          :        0.000 s           0.000 s
  | Integration                                :        0.015 s           0.015 s
  | Solution of K.-S. eqns.                    :        0.007 s           0.007 s
  | Grid partitioning                          :        0.008 s           0.007 s
  | Preloading free-atom quantities on grid    :        0.004 s           0.004 s
  | Free-atom superposition energy             :        0.003 s           0.003 s
  | Total energy evaluation                    :        0.000 s           0.001 s
------------------------------------------------------------

------------------------------------------------------------
          Begin self-consistency iteration #    1

  Date     :  20220120, Time     :  153403.413
------------------------------------------------------------
  Evaluating new KS density.
  Integration grid: deviation in total charge (<rho> - N_e) =  -7.438192E-08
  | <rho_up-rho_dn> = N_up-N_dn =      2.0000; <|rho_up-rho_dn|> =      2.5464
  Pulay mixing of updated and previous charge densities.

  Evaluating partitioned Hartree potential by multipole expansion.
  | Analytical far-field extrapolation by fixed multipoles:
  | Hartree multipole sum: apparent total charge =  -0.260390E-04
  Summing up the Hartree potential.
  Time summed over all CPUs for potential: real work        0.045 s, elapsed        0.052 s
  | RMS charge density error from multipole expansion :   0.798843E-03

  Integrating Hamiltonian matrix: batch-based integration.
  Time summed over all CPUs for integration: real work        0.066 s, elapsed        0.070 s

  Updating Kohn-Sham eigenvalues, eigenvectors, occupation numbers, and Fermi level.
  Solving generalized eigenproblem
  Solving real symmetric generalised eigenvalue problem by standard ScaLAPACK.
  Using Cholesky factor for transformation
  Using 1-stage real ELPA solver
  Solving real symmetric generalised eigenvalue problem by standard ScaLAPACK.
  Using Cholesky factor for transformation
  Using 1-stage real ELPA solver
  Determining occupation numbers for Kohn-Sham eigenstates.
  | Chemical potential (Fermi level) in eV                 : -.94491094E+01
  | Error in electron count due to remaining E_F inaccuracy: 0.00000000E+00
  | Maximum occupation number of highest empty state:  0.00E+00

  Writing Kohn-Sham eigenvalues.

  Spin-up eigenvalues:

  State    Occupation    Eigenvalue [Ha]    Eigenvalue [eV]
      1       1.00000          -0.647973          -17.63225
      2       0.00000           0.044673            1.21562
      3       0.00000           0.065865            1.79228
      4       0.00000           0.171675            4.67151
      5       0.00000           0.199881            5.43904
      6       0.00000           0.199881            5.43904
      7       0.00000           0.315695            8.59050
      8       0.00000           0.645195           17.55666
      9       0.00000           0.645195           17.55666
     10       0.00000           0.663184           18.04614
     11       0.00000           0.729532           19.85156

  Spin-down eigenvalues:

  State    Occupation    Eigenvalue [Ha]    Eigenvalue [eV]
      1       1.00000          -0.473973          -12.89745
      2       0.00000           0.069202            1.88307
      3       0.00000           0.073760            2.00712
      4       0.00000           0.217077            5.90698
      5       0.00000           0.304003            8.27234
      6       0.00000           0.304003            8.27234
      7       0.00000           0.355665            9.67814
      8       0.00000           0.708887           19.28979
      9       0.00000           0.708887           19.28979
     10       0.00000           0.745004           20.27260
     11       0.00000           0.802582           21.83937

  Current spin moment of the entire structure :
  | N = N_up - N_down :    0.00
  | S                 :    0.00
  | J                 :    1.00

  Highest occupied state (VBM) at    -12.89745023 eV
  | Occupation number:      1.00000000
  | Spin channel:        2

  Lowest unoccupied state (CBM) at     1.21561972 eV
  | Occupation number:      0.00000000
  | Spin channel:        1

  Overall HOMO-LUMO gap:     14.11306995 eV.

  Total energy components:
  | Sum of eigenvalues            :          -1.12194588 Ha         -30.52970085 eV
  | XC energy correction          :          -0.40260270 Ha         -10.95537679 eV
  | XC potential correction       :           0.51349516 Ha          13.97291428 eV
  | Free-atom electrostatic energy:           0.46889046 Ha          12.75915847 eV
  | Hartree energy correction     :           0.08799918 Ha           2.39457954 eV
  | van der Waals energy corr.    :           0.00000000 Ha           0.00000000 eV
  | Entropy correction            :           0.00000000 Ha           0.00000000 eV
  | ---------------------------
  | Total energy                  :          -0.45416378 Ha         -12.35842534 eV
  | Total energy, T -> 0          :          -0.45416378 Ha         -12.35842534 eV  <-- do not rely on this value for anything but (periodic) metals
  | Electronic free energy        :          -0.45416378 Ha         -12.35842534 eV

  Derived energy quantities:
  | Kinetic energy                :           0.87563304 Ha          23.82718738 eV
  | Electrostatic energy          :          -0.92719413 Ha         -25.23023593 eV
  | Energy correction for multipole
  | error in Hartree potential    :           0.00002774 Ha           0.00075484 eV
  | Sum of eigenvalues per atom                           :         -15.26485042 eV
  | Total energy (T->0) per atom                          :          -6.17921267 eV  <-- do not rely on this value for anything but (periodic) metals
  | Electronic free energy per atom                       :          -6.17921267 eV

  Self-consistency convergence accuracy:
  | Change of charge/spin density : 0.1525E+00 0.1525E+00
  | Change of sum of eigenvalues  : -.6374E+01 eV
  | Change of total energy        : -.6754E+01 eV

  End self-consistency iteration #     1       :  max(cpu_time)    wall_clock(cpu1)
  | Time for this iteration                    :        0.033 s           0.033 s
  | Charge density update                      :        0.008 s           0.007 s
  | Density mixing                             :        0.001 s           0.001 s
  | Hartree multipole update                   :        0.002 s           0.002 s
  | Hartree multipole summation                :        0.007 s           0.007 s
  | Integration                                :        0.009 s           0.009 s
  | Solution of K.-S. eqns.                    :        0.004 s           0.005 s
  | Total energy evaluation                    :        0.000 s           0.001 s
------------------------------------------------------------

------------------------------------------------------------
          Begin self-consistency iteration #    2

  Date     :  20220120, Time     :  153403.449
------------------------------------------------------------
  Evaluating new KS density.
  Integration grid: deviation in total charge (<rho> - N_e) =  -4.462915E-08
  | <rho_up-rho_dn> = N_up-N_dn =     -2.0000; <|rho_up-rho_dn|> =      2.0000
  Pulay mixing of updated and previous charge densities.

  Evaluating partitioned Hartree potential by multipole expansion.
  | Analytical far-field extrapolation by fixed multipoles:
  | Hartree multipole sum: apparent total charge =  -0.234546E-04
  Summing up the Hartree potential.
  Time summed over all CPUs for potential: real work        0.033 s, elapsed        0.034 s
  | RMS charge density error from multipole expansion :   0.920938E-03

  Integrating Hamiltonian matrix: batch-based integration.
  Time summed over all CPUs for integration: real work        0.066 s, elapsed        0.069 s

  Updating Kohn-Sham eigenvalues, eigenvectors, occupation numbers, and Fermi level.
  Solving generalized eigenproblem
  Solving real symmetric generalised eigenvalue problem by standard ScaLAPACK.
  Using Cholesky factor for transformation
  Using 1-stage real ELPA solver
  Solving real symmetric generalised eigenvalue problem by standard ScaLAPACK.
  Using Cholesky factor for transformation
  Using 1-stage real ELPA solver
  Determining occupation numbers for Kohn-Sham eigenstates.
  | Chemical potential (Fermi level) in eV                 : -.14392320E+02
  | Error in electron count due to remaining E_F inaccuracy: 0.00000000E+00
  | Maximum occupation number of highest empty state:  0.00E+00

  Current spin moment of the entire structure :
  | N = N_up - N_down :    0.00
  | S                 :    0.00
  | J                 :    1.00

  Highest occupied state (VBM) at    -17.36003476 eV
  | Occupation number:      1.00000000
  | Spin channel:        2

  Lowest unoccupied state (CBM) at     0.98912008 eV
  | Occupation number:      0.00000000
  | Spin channel:        1

  Overall HOMO-LUMO gap:     18.34915484 eV.

  Total energy components:
  | Sum of eigenvalues            :          -1.50957807 Ha         -41.07770937 eV
  | XC energy correction          :          -0.62205780 Ha         -16.92705394 eV
  | XC potential correction       :           0.80010725 Ha          21.77202609 eV
  | Free-atom electrostatic energy:           0.46889046 Ha          12.75915847 eV
  | Hartree energy correction     :           0.04623658 Ha           1.25816146 eV
  | van der Waals energy corr.    :           0.00000000 Ha           0.00000000 eV
  | Entropy correction            :           0.00000000 Ha           0.00000000 eV
  | ---------------------------
  | Total energy                  :          -0.81640158 Ha         -22.21541729 eV
  | Total energy, T -> 0          :          -0.81640158 Ha         -22.21541729 eV  <-- do not rely on this value for anything but (periodic) metals
  | Electronic free energy        :          -0.81640158 Ha         -22.21541729 eV

  Derived energy quantities:
  | Kinetic energy                :           0.79378782 Ha          21.60006554 eV
  | Electrostatic energy          :          -0.98813160 Ha         -26.88842889 eV
  | Energy correction for multipole
  | error in Hartree potential    :           0.00005451 Ha           0.00148337 eV
  | Sum of eigenvalues per atom                           :         -20.53885469 eV
  | Total energy (T->0) per atom                          :         -11.10770865 eV  <-- do not rely on this value for anything but (periodic) metals
  | Electronic free energy per atom                       :         -11.10770865 eV

  Self-consistency convergence accuracy:
  | Change of charge/spin density : 0.1832E+00 0.3681E+00
  | Change of sum of eigenvalues  : -.1055E+02 eV
  | Change of total energy        : -.9857E+01 eV

  End self-consistency iteration #     2       :  max(cpu_time)    wall_clock(cpu1)
  | Time for this iteration                    :        0.025 s           0.025 s
  | Charge density update                      :        0.006 s           0.006 s
  | Density mixing                             :        0.001 s           0.001 s
  | Hartree multipole update                   :        0.001 s           0.001 s
  | Hartree multipole summation                :        0.005 s           0.005 s
  | Integration                                :        0.009 s           0.008 s
  | Solution of K.-S. eqns.                    :        0.001 s           0.002 s
  | Total energy evaluation                    :        0.000 s           0.001 s
------------------------------------------------------------

------------------------------------------------------------
          Begin self-consistency iteration #    3

  Date     :  20220120, Time     :  153403.479
------------------------------------------------------------
  Evaluating new KS density.
  Integration grid: deviation in total charge (<rho> - N_e) =  -4.058477E-08
  | <rho_up-rho_dn> = N_up-N_dn =     -1.7281; <|rho_up-rho_dn|> =      1.7281
  Pulay mixing of updated and previous charge densities.

  Evaluating partitioned Hartree potential by multipole expansion.
  | Analytical far-field extrapolation by fixed multipoles:
  | Hartree multipole sum: apparent total charge =  -0.257296E-04
  Summing up the Hartree potential.
  Time summed over all CPUs for potential: real work        0.032 s, elapsed        0.033 s
  | RMS charge density error from multipole expansion :   0.455991E-03

  Integrating Hamiltonian matrix: batch-based integration.
  Time summed over all CPUs for integration: real work        0.063 s, elapsed        0.066 s

  Updating Kohn-Sham eigenvalues, eigenvectors, occupation numbers, and Fermi level.
  Solving generalized eigenproblem
  Solving real symmetric generalised eigenvalue problem by standard ScaLAPACK.
  Using Cholesky factor for transformation
  Using 1-stage real ELPA solver
  Solving real symmetric generalised eigenvalue problem by standard ScaLAPACK.
  Using Cholesky factor for transformation
  Using 1-stage real ELPA solver
  Determining occupation numbers for Kohn-Sham eigenstates.
  | Chemical potential (Fermi level) in eV                 : -.10364776E+02
  | Error in electron count due to remaining E_F inaccuracy: 0.00000000E+00
  | Maximum occupation number of highest empty state:  0.00E+00

  Current spin moment of the entire structure :
  | N = N_up - N_down :    0.00
  | S                 :    0.00
  | J                 :    1.00

  Highest occupied state (VBM) at    -14.18632414 eV
  | Occupation number:      1.00000000
  | Spin channel:        2

  Lowest unoccupied state (CBM) at     0.85455259 eV
  | Occupation number:      0.00000000
  | Spin channel:        1

  Overall HOMO-LUMO gap:     15.04087673 eV.

  Total energy components:
  | Sum of eigenvalues            :          -1.20569159 Ha         -32.80853745 eV
  | XC energy correction          :          -0.42782889 Ha         -11.64181643 eV
  | XC potential correction       :           0.54697407 Ha          14.88392165 eV
  | Free-atom electrostatic energy:           0.46889046 Ha          12.75915847 eV
  | Hartree energy correction     :           0.11333700 Ha           3.08405658 eV
  | van der Waals energy corr.    :           0.00000000 Ha           0.00000000 eV
  | Entropy correction            :           0.00000000 Ha           0.00000000 eV
  | ---------------------------
  | Total energy                  :          -0.50431896 Ha         -13.72321717 eV
  | Total energy, T -> 0          :          -0.50431896 Ha         -13.72321717 eV  <-- do not rely on this value for anything but (periodic) metals
  | Electronic free energy        :          -0.50431896 Ha         -13.72321717 eV

  Derived energy quantities:
  | Kinetic energy                :           0.73530316 Ha          20.00861691 eV
  | Electrostatic energy          :          -0.81179323 Ha         -22.09001765 eV
  | Energy correction for multipole
  | error in Hartree potential    :           0.00000685 Ha           0.00018631 eV
  | Sum of eigenvalues per atom                           :         -16.40426872 eV
  | Total energy (T->0) per atom                          :          -6.86160859 eV  <-- do not rely on this value for anything but (periodic) metals
  | Electronic free energy per atom                       :          -6.86160859 eV

  Self-consistency convergence accuracy:
  | Change of charge/spin density : 0.3350E+00 0.2951E+00
  | Change of sum of eigenvalues  : 0.8269E+01 eV
  | Change of total energy        : 0.8492E+01 eV

  End self-consistency iteration #     3       :  max(cpu_time)    wall_clock(cpu1)
  | Time for this iteration                    :        0.027 s           0.026 s
  | Charge density update                      :        0.009 s           0.008 s
  | Density mixing                             :        0.001 s           0.001 s
  | Hartree multipole update                   :        0.001 s           0.001 s
  | Hartree multipole summation                :        0.004 s           0.005 s
  | Integration                                :        0.008 s           0.008 s
  | Solution of K.-S. eqns.                    :        0.001 s           0.002 s
  | Total energy evaluation                    :        0.000 s           0.001 s
------------------------------------------------------------

------------------------------------------------------------
          Begin self-consistency iteration #    4

  Date     :  20220120, Time     :  153403.509
------------------------------------------------------------
  Evaluating new KS density.
  Integration grid: deviation in total charge (<rho> - N_e) =  -4.325635E-08
  | <rho_up-rho_dn> = N_up-N_dn =     -1.8758; <|rho_up-rho_dn|> =      1.8758
  Pulay mixing of updated and previous charge densities.

  Evaluating partitioned Hartree potential by multipole expansion.
  | Analytical far-field extrapolation by fixed multipoles:
  | Hartree multipole sum: apparent total charge =  -0.319604E-04
  Summing up the Hartree potential.
  Time summed over all CPUs for potential: real work        0.036 s, elapsed        0.038 s
  | RMS charge density error from multipole expansion :   0.610780E-02

  Integrating Hamiltonian matrix: batch-based integration.
  Time summed over all CPUs for integration: real work        0.069 s, elapsed        0.074 s

  Updating Kohn-Sham eigenvalues, eigenvectors, occupation numbers, and Fermi level.
  Solving generalized eigenproblem
  Solving real symmetric generalised eigenvalue problem by standard ScaLAPACK.
  Using Cholesky factor for transformation
  Using 1-stage real ELPA solver
  Solving real symmetric generalised eigenvalue problem by standard ScaLAPACK.
  Using Cholesky factor for transformation
  Using 1-stage real ELPA solver
  Determining occupation numbers for Kohn-Sham eigenstates.
  | Chemical potential (Fermi level) in eV                 : -.24426590E+02
  | Error in electron count due to remaining E_F inaccuracy: 0.00000000E+00
  | Maximum occupation number of highest empty state:  0.00E+00

  Current spin moment of the entire structure :
  | N = N_up - N_down :    0.00
  | S                 :    0.00
  | J                 :    1.00

  Highest occupied state (VBM) at    -26.10415030 eV
  | Occupation number:      1.00000000
  | Spin channel:        2

  Lowest unoccupied state (CBM) at    -1.12501673 eV
  | Occupation number:      0.00000000
  | Spin channel:        1

  Overall HOMO-LUMO gap:     24.97913357 eV.

  Total energy components:
  | Sum of eigenvalues            :          -1.97661742 Ha         -53.78649650 eV
  | XC energy correction          :          -0.54790556 Ha         -14.90926892 eV
  | XC potential correction       :           0.70368467 Ha          19.14823416 eV
  | Free-atom electrostatic energy:           0.46889046 Ha          12.75915847 eV
  | Hartree energy correction     :           0.30120367 Ha           8.19616882 eV
  | van der Waals energy corr.    :           0.00000000 Ha           0.00000000 eV
  | Entropy correction            :           0.00000000 Ha           0.00000000 eV
  | ---------------------------
  | Total energy                  :          -1.05074418 Ha         -28.59220397 eV
  | Total energy, T -> 0          :          -1.05074418 Ha         -28.59220397 eV  <-- do not rely on this value for anything but (periodic) metals
  | Electronic free energy        :          -1.05074418 Ha         -28.59220397 eV

  Derived energy quantities:
  | Kinetic energy                :          -1.92237487 Ha         -52.31048180 eV
  | Electrostatic energy          :           1.41953625 Ha          38.62754675 eV
  | Energy correction for multipole
  | error in Hartree potential    :          -0.00036290 Ha          -0.00987494 eV
  | Sum of eigenvalues per atom                           :         -26.89324825 eV
  | Total energy (T->0) per atom                          :         -14.29610198 eV  <-- do not rely on this value for anything but (periodic) metals
  | Electronic free energy per atom                       :         -14.29610198 eV

  Self-consistency convergence accuracy:
  | Change of charge/spin density : 0.2322E+00 0.3359E+00
  | Change of sum of eigenvalues  : -.2098E+02 eV
  | Change of total energy        : -.1487E+02 eV

  End self-consistency iteration #     4       :  max(cpu_time)    wall_clock(cpu1)
  | Time for this iteration                    :        0.030 s           0.030 s
  | Charge density update                      :        0.009 s           0.008 s
  | Density mixing                             :        0.002 s           0.002 s
  | Hartree multipole update                   :        0.002 s           0.002 s
  | Hartree multipole summation                :        0.005 s           0.005 s
  | Integration                                :        0.009 s           0.009 s
  | Solution of K.-S. eqns.                    :        0.002 s           0.002 s
  | Total energy evaluation                    :        0.000 s           0.000 s
------------------------------------------------------------

------------------------------------------------------------
          Begin self-consistency iteration #    5

  Date     :  20220120, Time     :  153403.540
------------------------------------------------------------
  Evaluating new KS density.
  Integration grid: deviation in total charge (<rho> - N_e) =  -4.015003E-08
  | <rho_up-rho_dn> = N_up-N_dn =     -1.4825; <|rho_up-rho_dn|> =      1.4825
  Pulay mixing of updated and previous charge densities.

  Evaluating partitioned Hartree potential by multipole expansion.
  | Analytical far-field extrapolation by fixed multipoles:
  | Hartree multipole sum: apparent total charge =   0.356165E-04
  Summing up the Hartree potential.
  Time summed over all CPUs for potential: real work        0.032 s, elapsed        0.033 s
  | RMS charge density error from multipole expansion :   0.296146E-01

  Integrating Hamiltonian matrix: batch-based integration.
  Time summed over all CPUs for integration: real work        0.061 s, elapsed        0.064 s

  Updating Kohn-Sham eigenvalues, eigenvectors, occupation numbers, and Fermi level.
  Solving generalized eigenproblem
  Solving real symmetric generalised eigenvalue problem by standard ScaLAPACK.
  Using Cholesky factor for transformation
  Using 1-stage real ELPA solver
  Solving real symmetric generalised eigenvalue problem by standard ScaLAPACK.
  Using Cholesky factor for transformation
  Using 1-stage real ELPA solver
  Determining occupation numbers for Kohn-Sham eigenstates.
  | Chemical potential (Fermi level) in eV                 : 0.25072559E+01
  | Error in electron count due to remaining E_F inaccuracy: 0.00000000E+00
  | Maximum occupation number of highest empty state:  0.00E+00

  Current spin moment of the entire structure :
  | N = N_up - N_down :    0.00
  | S                 :    0.00
  | J                 :    1.00

  Highest occupied state (VBM) at      2.02997831 eV
  | Occupation number:      1.00000000
  | Spin channel:        2
 * WARNING: The VBM is higher than the internal energy zero!

  Lowest unoccupied state (CBM) at     2.70125379 eV
  | Occupation number:      0.00000000
  | Spin channel:        1

  Overall HOMO-LUMO gap:      0.67127548 eV.

  Total energy components:
  | Sum of eigenvalues            :           0.14901561 Ha           4.05492115 eV
  | XC energy correction          :          -4.23354644 Ha        -115.20065995 eV
  | XC potential correction       :           5.49054052 Ha         149.40520913 eV
  | Free-atom electrostatic energy:           0.46889046 Ha          12.75915847 eV
  | Hartree energy correction     :          -9.43265803 Ha        -256.67568458 eV
  | van der Waals energy corr.    :           0.00000000 Ha           0.00000000 eV
  | Entropy correction            :           0.00000000 Ha           0.00000000 eV
  | ---------------------------
  | Total energy                  :          -7.55775789 Ha        -205.65705578 eV
  | Total energy, T -> 0          :          -7.55775789 Ha        -205.65705578 eV  <-- do not rely on this value for anything but (periodic) metals
  | Electronic free energy        :          -7.55775789 Ha        -205.65705578 eV

  Derived energy quantities:
  | Kinetic energy                :          -0.43365062 Ha         -11.80023377 eV
  | Electrostatic energy          :          -2.89056083 Ha         -78.65616206 eV
  | Energy correction for multipole
  | error in Hartree potential    :           0.00187130 Ha           0.05092064 eV
  | Sum of eigenvalues per atom                           :           2.02746058 eV
  | Total energy (T->0) per atom                          :        -102.82852789 eV  <-- do not rely on this value for anything but (periodic) metals
  | Electronic free energy per atom                       :        -102.82852789 eV

  Self-consistency convergence accuracy:
  | Change of charge/spin density : 0.1037E+01 0.2054E+00
  | Change of sum of eigenvalues  : 0.5784E+02 eV
  | Change of total energy        : -.1771E+03 eV

  End self-consistency iteration #     5       :  max(cpu_time)    wall_clock(cpu1)
  | Time for this iteration                    :        0.025 s           0.023 s
  | Charge density update                      :        0.007 s           0.005 s
  | Density mixing                             :        0.001 s           0.002 s
  | Hartree multipole update                   :        0.001 s           0.001 s
  | Hartree multipole summation                :        0.004 s           0.004 s
  | Integration                                :        0.008 s           0.009 s
  | Solution of K.-S. eqns.                    :        0.001 s           0.001 s
  | Total energy evaluation                    :        0.000 s           0.001 s
------------------------------------------------------------

------------------------------------------------------------
          Begin self-consistency iteration #    6

  Date     :  20220120, Time     :  153403.569
------------------------------------------------------------
  Evaluating new KS density.
  Integration grid: deviation in total charge (<rho> - N_e) =  -1.295634E-09
  | <rho_up-rho_dn> = N_up-N_dn =     -0.1169; <|rho_up-rho_dn|> =      1.4969
  Pulay mixing of updated and previous charge densities.

  Evaluating partitioned Hartree potential by multipole expansion.
  | Analytical far-field extrapolation by fixed multipoles:
  | Hartree multipole sum: apparent total charge =   0.122467E-04
  Summing up the Hartree potential.
  Time summed over all CPUs for potential: real work        0.032 s, elapsed        0.033 s
  | RMS charge density error from multipole expansion :   0.200518E-01

  Integrating Hamiltonian matrix: batch-based integration.
  Time summed over all CPUs for integration: real work        0.063 s, elapsed        0.066 s

  Updating Kohn-Sham eigenvalues, eigenvectors, occupation numbers, and Fermi level.
  Solving generalized eigenproblem
  Solving real symmetric generalised eigenvalue problem by standard ScaLAPACK.
  Using Cholesky factor for transformation
  Using 1-stage real ELPA solver
  Solving real symmetric generalised eigenvalue problem by standard ScaLAPACK.
  Using Cholesky factor for transformation
  Using 1-stage real ELPA solver
  Determining occupation numbers for Kohn-Sham eigenstates.
  | Chemical potential (Fermi level) in eV                 : 0.10113674E+01
  | Error in electron count due to remaining E_F inaccuracy: 0.00000000E+00
  | Maximum occupation number of highest empty state:  0.00E+00

  Current spin moment of the entire structure :
  | N = N_up - N_down :    0.00
  | S                 :    0.00
  | J                 :    1.00

  Highest occupied state (VBM) at      0.62922570 eV
  | Occupation number:      1.00000000
  | Spin channel:        1
 * WARNING: The VBM is higher than the internal energy zero!

  Lowest unoccupied state (CBM) at     1.43202174 eV
  | Occupation number:      0.00000000
  | Spin channel:        2

  Overall HOMO-LUMO gap:      0.80279604 eV.

  Total energy components:
  | Sum of eigenvalues            :           0.04450037 Ha           1.21091671 eV
  | XC energy correction          :          -2.75454950 Ha         -74.95510544 eV
  | XC potential correction       :           3.56198415 Ha          96.92652028 eV
  | Free-atom electrostatic energy:           0.46889046 Ha          12.75915847 eV
  | Hartree energy correction     :          -4.85873720 Ha        -132.21296622 eV
  | van der Waals energy corr.    :           0.00000000 Ha           0.00000000 eV
  | Entropy correction            :           0.00000000 Ha           0.00000000 eV
  | ---------------------------
  | Total energy                  :          -3.53791172 Ha         -96.27147621 eV
  | Total energy, T -> 0          :          -3.53791172 Ha         -96.27147621 eV  <-- do not rely on this value for anything but (periodic) metals
  | Electronic free energy        :          -3.53791172 Ha         -96.27147621 eV

  Derived energy quantities:
  | Kinetic energy                :           2.91584969 Ha          79.34430702 eV
  | Electrostatic energy          :          -3.69921192 Ha        -100.66067779 eV
  | Energy correction for multipole
  | error in Hartree potential    :           0.00131597 Ha           0.03580935 eV
  | Sum of eigenvalues per atom                           :           0.60545835 eV
  | Total energy (T->0) per atom                          :         -48.13573810 eV  <-- do not rely on this value for anything but (periodic) metals
  | Electronic free energy per atom                       :         -48.13573810 eV

  Self-consistency convergence accuracy:
  | Change of charge/spin density : 0.3019E+01 0.7025E+00
  | Change of sum of eigenvalues  : -.2844E+01 eV
  | Change of total energy        : 0.1094E+03 eV

  End self-consistency iteration #     6       :  max(cpu_time)    wall_clock(cpu1)
  | Time for this iteration                    :        0.025 s           0.025 s
  | Charge density update                      :        0.006 s           0.006 s
  | Density mixing                             :        0.002 s           0.001 s
  | Hartree multipole update                   :        0.001 s           0.002 s
  | Hartree multipole summation                :        0.005 s           0.004 s
  | Integration                                :        0.008 s           0.009 s
  | Solution of K.-S. eqns.                    :        0.001 s           0.001 s
  | Total energy evaluation                    :        0.000 s           0.000 s
------------------------------------------------------------

------------------------------------------------------------
          Begin self-consistency iteration #    7

  Date     :  20220120, Time     :  153403.599
------------------------------------------------------------
  Evaluating new KS density.
  Integration grid: deviation in total charge (<rho> - N_e) =  -1.475524E-09
  | <rho_up-rho_dn> = N_up-N_dn =      0.1001; <|rho_up-rho_dn|> =      0.9900
  Pulay mixing of updated and previous charge densities.

  Evaluating partitioned Hartree potential by multipole expansion.
  | Analytical far-field extrapolation by fixed multipoles:
  | Hartree multipole sum: apparent total charge =   0.870461E-08
  Summing up the Hartree potential.
  Time summed over all CPUs for potential: real work        0.032 s, elapsed        0.033 s
  | RMS charge density error from multipole expansion :   0.179726E-01

  Integrating Hamiltonian matrix: batch-based integration.
  Time summed over all CPUs for integration: real work        0.063 s, elapsed        0.066 s

  Updating Kohn-Sham eigenvalues, eigenvectors, occupation numbers, and Fermi level.
  Solving generalized eigenproblem
  Solving real symmetric generalised eigenvalue problem by standard ScaLAPACK.
  Using Cholesky factor for transformation
  Using 1-stage real ELPA solver
  Solving real symmetric generalised eigenvalue problem by standard ScaLAPACK.
  Using Cholesky factor for transformation
  Using 1-stage real ELPA solver
  Determining occupation numbers for Kohn-Sham eigenstates.
  | Chemical potential (Fermi level) in eV                 : 0.74467817E+00
  | Error in electron count due to remaining E_F inaccuracy: 0.00000000E+00
  | Maximum occupation number of highest empty state:  0.00E+00

  Current spin moment of the entire structure :
  | N = N_up - N_down :    0.00
  | S                 :    0.00
  | J                 :    1.00

  Highest occupied state (VBM) at      0.32081544 eV
  | Occupation number:      1.00000000
  | Spin channel:        1
 * WARNING: The VBM is higher than the internal energy zero!

  Lowest unoccupied state (CBM) at     1.11944390 eV
  | Occupation number:      0.00000000
  | Spin channel:        2

  Overall HOMO-LUMO gap:      0.79862846 eV.

  Total energy components:
  | Sum of eigenvalues            :           0.01771372 Ha           0.48201480 eV
  | XC energy correction          :          -2.45247563 Ha         -66.73525744 eV
  | XC potential correction       :           3.16889375 Ha          86.22998615 eV
  | Free-atom electrostatic energy:           0.46889046 Ha          12.75915847 eV
  | Hartree energy correction     :          -4.01526982 Ha        -109.26105098 eV
  | van der Waals energy corr.    :           0.00000000 Ha           0.00000000 eV
  | Entropy correction            :           0.00000000 Ha           0.00000000 eV
  | ---------------------------
  | Total energy                  :          -2.81224754 Ha         -76.52514900 eV
  | Total energy, T -> 0          :          -2.81224754 Ha         -76.52514900 eV  <-- do not rely on this value for anything but (periodic) metals
  | Electronic free energy        :          -2.81224754 Ha         -76.52514900 eV

  Derived energy quantities:
  | Kinetic energy                :           3.33312655 Ha          90.69898822 eV
  | Electrostatic energy          :          -3.69289846 Ha        -100.48887978 eV
  | Energy correction for multipole
  | error in Hartree potential    :           0.00118508 Ha           0.03224775 eV
  | Sum of eigenvalues per atom                           :           0.24100740 eV
  | Total energy (T->0) per atom                          :         -38.26257450 eV  <-- do not rely on this value for anything but (periodic) metals
  | Electronic free energy per atom                       :         -38.26257450 eV

  Self-consistency convergence accuracy:
  | Change of charge/spin density : 0.2115E+01 0.4289E+00
  | Change of sum of eigenvalues  : -.7289E+00 eV
  | Change of total energy        : 0.1975E+02 eV

  End self-consistency iteration #     7       :  max(cpu_time)    wall_clock(cpu1)
  | Time for this iteration                    :        0.028 s           0.024 s
  | Charge density update                      :        0.010 s           0.005 s
  | Density mixing                             :        0.002 s           0.002 s
  | Hartree multipole update                   :        0.001 s           0.001 s
  | Hartree multipole summation                :        0.004 s           0.005 s
  | Integration                                :        0.008 s           0.008 s
  | Solution of K.-S. eqns.                    :        0.001 s           0.002 s
  | Total energy evaluation                    :        0.000 s           0.001 s
------------------------------------------------------------

------------------------------------------------------------
          Begin self-consistency iteration #    8

  Date     :  20220120, Time     :  153403.624
------------------------------------------------------------
  Evaluating new KS density.
  Integration grid: deviation in total charge (<rho> - N_e) =   1.584479E-09
  | <rho_up-rho_dn> = N_up-N_dn =      0.2984; <|rho_up-rho_dn|> =      0.9830
  Pulay mixing of updated and previous charge densities.

  Evaluating partitioned Hartree potential by multipole expansion.
  | Analytical far-field extrapolation by fixed multipoles:
  | Hartree multipole sum: apparent total charge =  -0.335026E-04
  Summing up the Hartree potential.
  Time summed over all CPUs for potential: real work        0.032 s, elapsed        0.033 s
  | RMS charge density error from multipole expansion :   0.429252E-02

  Integrating Hamiltonian matrix: batch-based integration.
  Time summed over all CPUs for integration: real work        0.071 s, elapsed        0.074 s

  Updating Kohn-Sham eigenvalues, eigenvectors, occupation numbers, and Fermi level.
  Solving generalized eigenproblem
  Solving real symmetric generalised eigenvalue problem by standard ScaLAPACK.
  Using Cholesky factor for transformation
  Using 1-stage real ELPA solver
  Solving real symmetric generalised eigenvalue problem by standard ScaLAPACK.
  Using Cholesky factor for transformation
  Using 1-stage real ELPA solver
  Determining occupation numbers for Kohn-Sham eigenstates.
  | Chemical potential (Fermi level) in eV                 : -.13393583E+02
  | Error in electron count due to remaining E_F inaccuracy: 0.00000000E+00
  | Maximum occupation number of highest empty state:  0.00E+00

  Current spin moment of the entire structure :
  | N = N_up - N_down :    0.00
  | S                 :    0.00
  | J                 :    1.00

  Highest occupied state (VBM) at    -15.83207015 eV
  | Occupation number:      1.00000000
  | Spin channel:        2

  Lowest unoccupied state (CBM) at    -0.60765092 eV
  | Occupation number:      0.00000000
  | Spin channel:        1

  Overall HOMO-LUMO gap:     15.22441923 eV.

  Total energy components:
  | Sum of eigenvalues            :          -1.17153773 Ha         -31.87916364 eV
  | XC energy correction          :          -0.82505115 Ha         -22.45078414 eV
  | XC potential correction       :           1.05664572 Ha          28.75279298 eV
  | Free-atom electrostatic energy:           0.46889046 Ha          12.75915847 eV
  | Hartree energy correction     :          -0.32702052 Ha          -8.89868122 eV
  | van der Waals energy corr.    :           0.00000000 Ha           0.00000000 eV
  | Entropy correction            :           0.00000000 Ha           0.00000000 eV
  | ---------------------------
  | Total energy                  :          -0.79807323 Ha         -21.71667755 eV
  | Total energy, T -> 0          :          -0.79807323 Ha         -21.71667755 eV  <-- do not rely on this value for anything but (periodic) metals
  | Electronic free energy        :          -0.79807323 Ha         -21.71667755 eV

  Derived energy quantities:
  | Kinetic energy                :           1.91148137 Ha          52.01405441 eV
  | Electrostatic energy          :          -1.88450344 Ha         -51.27994781 eV
  | Energy correction for multipole
  | error in Hartree potential    :           0.00028698 Ha           0.00780920 eV
  | Sum of eigenvalues per atom                           :         -15.93958182 eV
  | Total energy (T->0) per atom                          :         -10.85833877 eV  <-- do not rely on this value for anything but (periodic) metals
  | Electronic free energy per atom                       :         -10.85833877 eV

  Self-consistency convergence accuracy:
  | Change of charge/spin density : 0.1917E+01 0.3630E+00
  | Change of sum of eigenvalues  : -.3236E+02 eV
  | Change of total energy        : 0.5481E+02 eV

  End self-consistency iteration #     8       :  max(cpu_time)    wall_clock(cpu1)
  | Time for this iteration                    :        0.026 s           0.026 s
  | Charge density update                      :        0.006 s           0.006 s
  | Density mixing                             :        0.002 s           0.002 s
  | Hartree multipole update                   :        0.001 s           0.001 s
  | Hartree multipole summation                :        0.004 s           0.005 s
  | Integration                                :        0.009 s           0.009 s
  | Solution of K.-S. eqns.                    :        0.001 s           0.002 s
  | Total energy evaluation                    :        0.000 s           0.001 s
------------------------------------------------------------

------------------------------------------------------------
          Begin self-consistency iteration #    9

  Date     :  20220120, Time     :  153403.651
------------------------------------------------------------
  Evaluating new KS density.
  Integration grid: deviation in total charge (<rho> - N_e) =  -4.983258E-09
  | <rho_up-rho_dn> = N_up-N_dn =      0.0247; <|rho_up-rho_dn|> =      0.1723
  Pulay mixing of updated and previous charge densities.

  Evaluating partitioned Hartree potential by multipole expansion.
  | Analytical far-field extrapolation by fixed multipoles:
  | Hartree multipole sum: apparent total charge =  -0.399953E-04
  Summing up the Hartree potential.
  Time summed over all CPUs for potential: real work        0.032 s, elapsed        0.034 s
  | RMS charge density error from multipole expansion :   0.250864E-02

  Integrating Hamiltonian matrix: batch-based integration.
  Time summed over all CPUs for integration: real work        0.071 s, elapsed        0.074 s

  Updating Kohn-Sham eigenvalues, eigenvectors, occupation numbers, and Fermi level.
  Solving generalized eigenproblem
  Solving real symmetric generalised eigenvalue problem by standard ScaLAPACK.
  Using Cholesky factor for transformation
  Using 1-stage real ELPA solver
  Solving real symmetric generalised eigenvalue problem by standard ScaLAPACK.
  Using Cholesky factor for transformation
  Using 1-stage real ELPA solver
  Determining occupation numbers for Kohn-Sham eigenstates.
  | Chemical potential (Fermi level) in eV                 : -.16483875E+02
  | Error in electron count due to remaining E_F inaccuracy: 0.00000000E+00
  | Maximum occupation number of highest empty state:  0.00E+00

  Current spin moment of the entire structure :
  | N = N_up - N_down :    0.00
  | S                 :    0.00
  | J                 :    1.00

  Highest occupied state (VBM) at    -18.90640934 eV
  | Occupation number:      1.00000000
  | Spin channel:        2

  Lowest unoccupied state (CBM) at    -0.72186063 eV
  | Occupation number:      0.00000000
  | Spin channel:        2

  Overall HOMO-LUMO gap:     18.18454871 eV.

  Total energy components:
  | Sum of eigenvalues            :          -1.40379713 Ha         -38.19926352 eV
  | XC energy correction          :          -0.69137136 Ha         -18.81317204 eV
  | XC potential correction       :           0.88438484 Ha          24.06533598 eV
  | Free-atom electrostatic energy:           0.46889046 Ha          12.75915847 eV
  | Hartree energy correction     :          -0.09991485 Ha          -2.71882153 eV
  | van der Waals energy corr.    :           0.00000000 Ha           0.00000000 eV
  | Entropy correction            :           0.00000000 Ha           0.00000000 eV
  | ---------------------------
  | Total energy                  :          -0.84180805 Ha         -22.90676265 eV
  | Total energy, T -> 0          :          -0.84180805 Ha         -22.90676265 eV  <-- do not rely on this value for anything but (periodic) metals
  | Electronic free energy        :          -0.84180805 Ha         -22.90676265 eV

  Derived energy quantities:
  | Kinetic energy                :           1.27273475 Ha          34.63287471 eV
  | Electrostatic energy          :          -1.42317144 Ha         -38.72646532 eV
  | Energy correction for multipole
  | error in Hartree potential    :           0.00018509 Ha           0.00503661 eV
  | Sum of eigenvalues per atom                           :         -19.09963176 eV
  | Total energy (T->0) per atom                          :         -11.45338133 eV  <-- do not rely on this value for anything but (periodic) metals
  | Electronic free energy per atom                       :         -11.45338133 eV

  Self-consistency convergence accuracy:
  | Change of charge/spin density : 0.1037E+00 0.8446E-01
  | Change of sum of eigenvalues  : -.6320E+01 eV
  | Change of total energy        : -.1190E+01 eV

  End self-consistency iteration #     9       :  max(cpu_time)    wall_clock(cpu1)
  | Time for this iteration                    :        0.026 s           0.026 s
  | Charge density update                      :        0.006 s           0.006 s
  | Density mixing                             :        0.002 s           0.002 s
  | Hartree multipole update                   :        0.001 s           0.001 s
  | Hartree multipole summation                :        0.004 s           0.005 s
  | Integration                                :        0.009 s           0.009 s
  | Solution of K.-S. eqns.                    :        0.001 s           0.002 s
  | Total energy evaluation                    :        0.000 s           0.001 s
------------------------------------------------------------

------------------------------------------------------------
          Begin self-consistency iteration #   10

  Date     :  20220120, Time     :  153403.680
------------------------------------------------------------
  Evaluating new KS density.
  Integration grid: deviation in total charge (<rho> - N_e) =  -5.335906E-09
  | <rho_up-rho_dn> = N_up-N_dn =     -0.0343; <|rho_up-rho_dn|> =      0.0786
  Pulay mixing of updated and previous charge densities.

  Evaluating partitioned Hartree potential by multipole expansion.
  | Analytical far-field extrapolation by fixed multipoles:
  | Hartree multipole sum: apparent total charge =  -0.375043E-04
  Summing up the Hartree potential.
  Time summed over all CPUs for potential: real work        0.036 s, elapsed        0.041 s
  | RMS charge density error from multipole expansion :   0.305820E-02

  Integrating Hamiltonian matrix: batch-based integration.
  Time summed over all CPUs for integration: real work        0.075 s, elapsed        0.081 s

  Updating Kohn-Sham eigenvalues, eigenvectors, occupation numbers, and Fermi level.
  Solving generalized eigenproblem
  Solving real symmetric generalised eigenvalue problem by standard ScaLAPACK.
  Using Cholesky factor for transformation
  Using 1-stage real ELPA solver
  Solving real symmetric generalised eigenvalue problem by standard ScaLAPACK.
  Using Cholesky factor for transformation
  Using 1-stage real ELPA solver
  Determining occupation numbers for Kohn-Sham eigenstates.
  | Chemical potential (Fermi level) in eV                 : -.15502913E+02
  | Error in electron count due to remaining E_F inaccuracy: 0.00000000E+00
  | Maximum occupation number of highest empty state:  0.00E+00

  Current spin moment of the entire structure :
  | N = N_up - N_down :    0.00
  | S                 :    0.00
  | J                 :    1.00

  Highest occupied state (VBM) at    -17.90286688 eV
  | Occupation number:      1.00000000
  | Spin channel:        2

  Lowest unoccupied state (CBM) at    -0.66889422 eV
  | Occupation number:      0.00000000
  | Spin channel:        2

  Overall HOMO-LUMO gap:     17.23397266 eV.

  Total energy components:
  | Sum of eigenvalues            :          -1.32890008 Ha         -36.16121097 eV
  | XC energy correction          :          -0.73173185 Ha         -19.91143660 eV
  | XC potential correction       :           0.93618896 Ha          25.47499786 eV
  | Free-atom electrostatic energy:           0.46889046 Ha          12.75915847 eV
  | Hartree energy correction     :          -0.16959660 Ha          -4.61495826 eV
  | van der Waals energy corr.    :           0.00000000 Ha           0.00000000 eV
  | Entropy correction            :           0.00000000 Ha           0.00000000 eV
  | ---------------------------
  | Total energy                  :          -0.82514910 Ha         -22.45344951 eV
  | Total energy, T -> 0          :          -0.82514910 Ha         -22.45344951 eV  <-- do not rely on this value for anything but (periodic) metals
  | Electronic free energy        :          -0.82514910 Ha         -22.45344951 eV

  Derived energy quantities:
  | Kinetic energy                :           1.47924081 Ha          40.25219041 eV
  | Electrostatic energy          :          -1.57265807 Ha         -42.79420331 eV
  | Energy correction for multipole
  | error in Hartree potential    :           0.00021809 Ha           0.00593455 eV
  | Sum of eigenvalues per atom                           :         -18.08060549 eV
  | Total energy (T->0) per atom                          :         -11.22672476 eV  <-- do not rely on this value for anything but (periodic) metals
  | Electronic free energy per atom                       :         -11.22672476 eV

  Self-consistency convergence accuracy:
  | Change of charge/spin density : 0.1768E+00 0.4264E-01
  | Change of sum of eigenvalues  : 0.2038E+01 eV
  | Change of total energy        : 0.4533E+00 eV

  End self-consistency iteration #    10       :  max(cpu_time)    wall_clock(cpu1)
  | Time for this iteration                    :        0.028 s           0.027 s
  | Charge density update                      :        0.006 s           0.005 s
  | Density mixing                             :        0.002 s           0.002 s
  | Hartree multipole update                   :        0.001 s           0.002 s
  | Hartree multipole summation                :        0.005 s           0.005 s
  | Integration                                :        0.010 s           0.011 s
  | Solution of K.-S. eqns.                    :        0.001 s           0.001 s
  | Total energy evaluation                    :        0.000 s           0.000 s
------------------------------------------------------------

------------------------------------------------------------
          Begin self-consistency iteration #   11

  Date     :  20220120, Time     :  153403.710
------------------------------------------------------------
  Evaluating new KS density.
  Integration grid: deviation in total charge (<rho> - N_e) =  -5.271889E-09
  | <rho_up-rho_dn> = N_up-N_dn =      0.0030; <|rho_up-rho_dn|> =      0.1158
  Pulay mixing of updated and previous charge densities.

  Evaluating partitioned Hartree potential by multipole expansion.
  | Analytical far-field extrapolation by fixed multipoles:
  | Hartree multipole sum: apparent total charge =  -0.531498E-04
  Summing up the Hartree potential.
  Time summed over all CPUs for potential: real work        0.032 s, elapsed        0.034 s
  | RMS charge density error from multipole expansion :   0.890715E-03

  Integrating Hamiltonian matrix: batch-based integration.
  Time summed over all CPUs for integration: real work        0.072 s, elapsed        0.074 s

  Updating Kohn-Sham eigenvalues, eigenvectors, occupation numbers, and Fermi level.
  Solving generalized eigenproblem
  Solving real symmetric generalised eigenvalue problem by standard ScaLAPACK.
  Using Cholesky factor for transformation
  Using 1-stage real ELPA solver
  Solving real symmetric generalised eigenvalue problem by standard ScaLAPACK.
  Using Cholesky factor for transformation
  Using 1-stage real ELPA solver
  Determining occupation numbers for Kohn-Sham eigenstates.
  | Chemical potential (Fermi level) in eV                 : -.19406072E+02
  | Error in electron count due to remaining E_F inaccuracy: 0.00000000E+00
  | Maximum occupation number of highest empty state:  0.00E+00

  Current spin moment of the entire structure :
  | N = N_up - N_down :    0.00
  | S                 :    0.00
  | J                 :    1.00

  Highest occupied state (VBM) at    -22.15950921 eV
  | Occupation number:      1.00000000
  | Spin channel:        1

  Lowest unoccupied state (CBM) at    -0.99650895 eV
  | Occupation number:      0.00000000
  | Spin channel:        2

  Overall HOMO-LUMO gap:     21.16300026 eV.

  Total energy components:
  | Sum of eigenvalues            :          -1.63664916 Ha         -44.53548958 eV
  | XC energy correction          :          -0.57986210 Ha         -15.77885056 eV
  | XC potential correction       :           0.74297819 Ha          20.21746508 eV
  | Free-atom electrostatic energy:           0.46889046 Ha          12.75915847 eV
  | Hartree energy correction     :           0.09450473 Ha           2.57160463 eV
  | van der Waals energy corr.    :           0.00000000 Ha           0.00000000 eV
  | Entropy correction            :           0.00000000 Ha           0.00000000 eV
  | ---------------------------
  | Total energy                  :          -0.91013789 Ha         -24.76611197 eV
  | Total energy, T -> 0          :          -0.91013789 Ha         -24.76611197 eV  <-- do not rely on this value for anything but (periodic) metals
  | Electronic free energy        :          -0.91013789 Ha         -24.76611197 eV

  Derived energy quantities:
  | Kinetic energy                :           0.60004178 Ha          16.32796771 eV
  | Electrostatic energy          :          -0.93031757 Ha         -25.31522911 eV
  | Energy correction for multipole
  | error in Hartree potential    :           0.00008760 Ha           0.00238364 eV
  | Sum of eigenvalues per atom                           :         -22.26774479 eV
[...]
  | Change of sum of eigenvalues  : -.2903E-04 eV
  | Change of total energy        : -.4331E-08 eV

  End self-consistency iteration #    27       :  max(cpu_time)    wall_clock(cpu1)
  | Time for this iteration                    :        0.027 s           0.027 s
  | Charge density update                      :        0.006 s           0.006 s
  | Density mixing                             :        0.002 s           0.002 s
  | Hartree multipole update                   :        0.001 s           0.002 s
  | Hartree multipole summation                :        0.005 s           0.004 s
  | Integration                                :        0.010 s           0.010 s
  | Solution of K.-S. eqns.                    :        0.001 s           0.002 s
  | Total energy evaluation                    :        0.000 s           0.001 s
------------------------------------------------------------

------------------------------------------------------------
          Begin self-consistency iteration #   28

  Date     :  20220120, Time     :  153404.231
------------------------------------------------------------
  Evaluating new KS density.
  Integration grid: deviation in total charge (<rho> - N_e) =   1.318945E-13
  | <rho_up-rho_dn> = N_up-N_dn =      0.0000; <|rho_up-rho_dn|> =      0.0000
  Pulay mixing of updated and previous charge densities.

  Evaluating partitioned Hartree potential by multipole expansion.
  | Analytical far-field extrapolation by fixed multipoles:
  | Hartree multipole sum: apparent total charge =   0.365431E-05
  Summing up the Hartree potential.
  Time summed over all CPUs for potential: real work        0.034 s, elapsed        0.035 s
  | RMS charge density error from multipole expansion :   0.386821E-02

  Integrating Hamiltonian matrix: batch-based integration.
  Time summed over all CPUs for integration: real work        0.072 s, elapsed        0.075 s

  Updating Kohn-Sham eigenvalues, eigenvectors, occupation numbers, and Fermi level.
  Solving generalized eigenproblem
  Solving real symmetric generalised eigenvalue problem by standard ScaLAPACK.
  Using Cholesky factor for transformation
  Using 1-stage real ELPA solver
  Solving real symmetric generalised eigenvalue problem by standard ScaLAPACK.
  Using Cholesky factor for transformation
  Using 1-stage real ELPA solver
  Determining occupation numbers for Kohn-Sham eigenstates.
  | Chemical potential (Fermi level) in eV                 : -.11317127E+02
  | Error in electron count due to remaining E_F inaccuracy: 0.00000000E+00
  | Maximum occupation number of highest empty state:  0.00E+00

  Current spin moment of the entire structure :
  | N = N_up - N_down :    0.00
  | S                 :    0.00
  | J                 :    1.00

  Highest occupied state (VBM) at    -13.09781576 eV
  | Occupation number:      1.00000000
  | Spin channel:        1

  Lowest unoccupied state (CBM) at     1.23095479 eV
  | Occupation number:      0.00000000
  | Spin channel:        1

  Overall HOMO-LUMO gap:     14.32877055 eV.

  Total energy components:
  | Sum of eigenvalues            :          -0.96267177 Ha         -26.19563156 eV
  | XC energy correction          :          -0.87028615 Ha         -23.68169102 eV
  | XC potential correction       :           1.11623340 Ha          30.37425622 eV
  | Free-atom electrostatic energy:           0.46889046 Ha          12.75915847 eV
  | Hartree energy correction     :          -0.55051747 Ha         -14.98034246 eV
  | van der Waals energy corr.    :           0.00000000 Ha           0.00000000 eV
  | Entropy correction            :           0.00000000 Ha           0.00000000 eV
  | ---------------------------
  | Total energy                  :          -0.79835153 Ha         -21.72425035 eV
  | Total energy, T -> 0          :          -0.79835153 Ha         -21.72425035 eV  <-- do not rely on this value for anything but (periodic) metals
  | Electronic free energy        :          -0.79835153 Ha         -21.72425035 eV

  Derived energy quantities:
  | Kinetic energy                :           1.81533272 Ha          49.39771655 eV
  | Electrostatic energy          :          -1.74339809 Ha         -47.44027587 eV
  | Energy correction for multipole
  | error in Hartree potential    :           0.00036236 Ha           0.00986022 eV
  | Sum of eigenvalues per atom                           :         -13.09781578 eV
  | Total energy (T->0) per atom                          :         -10.86212517 eV  <-- do not rely on this value for anything but (periodic) metals
  | Electronic free energy per atom                       :         -10.86212517 eV

  Self-consistency convergence accuracy:
  | Change of charge/spin density : 0.2614E-06 0.8499E-07
  | Change of sum of eigenvalues  : -.2744E-04 eV
  | Change of total energy        : -.3916E-08 eV

  End self-consistency iteration #    28       :  max(cpu_time)    wall_clock(cpu1)
  | Time for this iteration                    :        0.027 s           0.026 s
  | Charge density update                      :        0.006 s           0.005 s
  | Density mixing                             :        0.002 s           0.003 s
  | Hartree multipole update                   :        0.001 s           0.001 s
  | Hartree multipole summation                :        0.005 s           0.005 s
  | Integration                                :        0.010 s           0.010 s
  | Solution of K.-S. eqns.                    :        0.001 s           0.001 s
  | Total energy evaluation                    :        0.000 s           0.000 s
------------------------------------------------------------

------------------------------------------------------------
          Begin self-consistency iteration #   29

  Date     :  20220120, Time     :  153404.260
------------------------------------------------------------
  Evaluating new KS density.
  Integration grid: deviation in total charge (<rho> - N_e) =  -2.042810E-14
  | <rho_up-rho_dn> = N_up-N_dn =     -0.0000; <|rho_up-rho_dn|> =      0.0000
  Pulay mixing of updated and previous charge densities.

  Evaluating partitioned Hartree potential by multipole expansion.
  | Analytical far-field extrapolation by fixed multipoles:
  | Hartree multipole sum: apparent total charge =   0.365432E-05
  Summing up the Hartree potential.
  Time summed over all CPUs for potential: real work        0.033 s, elapsed        0.035 s
  | RMS charge density error from multipole expansion :   0.386821E-02

  Integrating Hamiltonian matrix: batch-based integration.
  Time summed over all CPUs for integration: real work        0.077 s, elapsed        0.081 s

  Updating Kohn-Sham eigenvalues, eigenvectors, occupation numbers, and Fermi level.
  Solving generalized eigenproblem
  Solving real symmetric generalised eigenvalue problem by standard ScaLAPACK.
  Using Cholesky factor for transformation
  Using 1-stage real ELPA solver
  Solving real symmetric generalised eigenvalue problem by standard ScaLAPACK.
  Using Cholesky factor for transformation
  Using 1-stage real ELPA solver
  Determining occupation numbers for Kohn-Sham eigenstates.
  | Chemical potential (Fermi level) in eV                 : -.11317077E+02
  | Error in electron count due to remaining E_F inaccuracy: 0.00000000E+00
  | Maximum occupation number of highest empty state:  0.00E+00

  Current spin moment of the entire structure :
  | N = N_up - N_down :    0.00
  | S                 :    0.00
  | J                 :    1.00

  Highest occupied state (VBM) at    -13.09781610 eV
  | Occupation number:      1.00000000
  | Spin channel:        1

  Lowest unoccupied state (CBM) at     1.23085572 eV
  | Occupation number:      0.00000000
  | Spin channel:        1

  Overall HOMO-LUMO gap:     14.32867182 eV.

  Total energy components:
  | Sum of eigenvalues            :          -0.96267179 Ha         -26.19563221 eV
  | XC energy correction          :          -0.87028614 Ha         -23.68169077 eV
  | XC potential correction       :           1.11623339 Ha          30.37425588 eV
  | Free-atom electrostatic energy:           0.46889046 Ha          12.75915847 eV
  | Hartree energy correction     :          -0.55051744 Ha         -14.98034173 eV
  | van der Waals energy corr.    :           0.00000000 Ha           0.00000000 eV
  | Entropy correction            :           0.00000000 Ha           0.00000000 eV
  | ---------------------------
  | Total energy                  :          -0.79835153 Ha         -21.72425035 eV
  | Total energy, T -> 0          :          -0.79835153 Ha         -21.72425035 eV  <-- do not rely on this value for anything but (periodic) metals
  | Electronic free energy        :          -0.79835153 Ha         -21.72425035 eV

  Derived energy quantities:
  | Kinetic energy                :           1.81533271 Ha          49.39771643 eV
  | Electrostatic energy          :          -1.74339810 Ha         -47.44027601 eV
  | Energy correction for multipole
  | error in Hartree potential    :           0.00036236 Ha           0.00986022 eV
  | Sum of eigenvalues per atom                           :         -13.09781610 eV
  | Total energy (T->0) per atom                          :         -10.86212517 eV  <-- do not rely on this value for anything but (periodic) metals
  | Electronic free energy per atom                       :         -10.86212517 eV

  Self-consistency convergence accuracy:
  | Change of charge/spin density : 0.1244E-07 0.1564E-07
  | Change of sum of eigenvalues  : -.6494E-06 eV
  | Change of total energy        : -.3743E-10 eV

  Writing Kohn-Sham eigenvalues.

  Spin-up eigenvalues:

  State    Occupation    Eigenvalue [Ha]    Eigenvalue [eV]
      1       1.00000          -0.481336          -13.09782
      2       0.00000           0.045233            1.23086
      3       0.00000           0.055436            1.50850
      4       0.00000           0.233291            6.34816
      5       0.00000           0.341459            9.29158
      6       0.00000           0.365954            9.95810
      7       0.00000           0.365954            9.95810
      8       0.00000           0.736818           20.04985
      9       0.00000           0.736818           20.04985
     10       0.00000           0.789814           21.49193
     11       0.00000           0.827525           22.51809

  Spin-down eigenvalues:

  State    Occupation    Eigenvalue [Ha]    Eigenvalue [eV]
      1       1.00000          -0.481336          -13.09782
      2       0.00000           0.045237            1.23097
      3       0.00000           0.055438            1.50854
      4       0.00000           0.233292            6.34819
      5       0.00000           0.341464            9.29170
      6       0.00000           0.365954            9.95810
      7       0.00000           0.365954            9.95810
      8       0.00000           0.736818           20.04985
      9       0.00000           0.736818           20.04985
     10       0.00000           0.789814           21.49193
     11       0.00000           0.827525           22.51809

  Current spin moment of the entire structure :
  | N = N_up - N_down :    0.00
  | S                 :    0.00
  | J                 :    1.00

  Highest occupied state (VBM) at    -13.09781610 eV
  | Occupation number:      1.00000000
  | Spin channel:        1

  Lowest unoccupied state (CBM) at     1.23085572 eV
  | Occupation number:      0.00000000
  | Spin channel:        1

  Overall HOMO-LUMO gap:     14.32867182 eV.

  Self-consistency cycle converged.

  End self-consistency iteration #    29       :  max(cpu_time)    wall_clock(cpu1)
  | Time for this iteration                    :        0.030 s           0.030 s
  | Charge density update                      :        0.008 s           0.007 s
  | Density mixing                             :        0.002 s           0.002 s
  | Hartree multipole update                   :        0.001 s           0.002 s
  | Hartree multipole summation                :        0.005 s           0.004 s
  | Integration                                :        0.010 s           0.011 s
  | Solution of K.-S. eqns.                    :        0.002 s           0.002 s
  | Total energy evaluation                    :        0.000 s           0.001 s
------------------------------------------------------------
  Obtaining max. number of non-zero basis functions in each batch .
  Evaluating KS electron density on previously omitted grid points.
  Evaluating non-empirical van der Waals correction (Tkatchenko/Scheffler 2009).
  Performing Hirshfeld analysis of fragment charges and moments.
  ----------------------------------------------------------------------
  | Atom     1: H
  |   Hirshfeld charge        :     -0.00000062
  |   Free atom volume        :     10.31539447
  |   Hirshfeld volume        :      3.31445810
  |   Hirshfeld spin moment   :      0.00000004
  |   Hirshfeld dipole vector :      0.00000000       0.00000000      -0.04978862
  |   Hirshfeld dipole moment :      0.04978862
  |   Hirshfeld second moments:      0.18514829      -0.00000000      -0.00000000
  |                                 -0.00000000       0.18514829      -0.00000000
  |                                 -0.00000000      -0.00000000       0.17805825
  ----------------------------------------------------------------------
  | Atom     2: H
  |   Hirshfeld charge        :     -0.00000062
  |   Free atom volume        :     10.31539447
  |   Hirshfeld volume        :      3.31445810
  |   Hirshfeld spin moment   :      0.00000004
  |   Hirshfeld dipole vector :      0.00000000       0.00000000       0.04978862
  |   Hirshfeld dipole moment :      0.04978862
  |   Hirshfeld second moments:      0.18514829      -0.00000000      -0.00000000
  |                                 -0.00000000       0.18514829       0.00000000
  |                                 -0.00000000       0.00000000       0.17805825
  ----------------------------------------------------------------------


  Total energy components:
  | Sum of eigenvalues            :          -0.96267179 Ha         -26.19563221 eV
  | XC energy correction          :          -0.87028614 Ha         -23.68169077 eV
  | XC potential correction       :           1.11623339 Ha          30.37425588 eV
  | Free-atom electrostatic energy:           0.46889046 Ha          12.75915847 eV
  | Hartree energy correction     :          -0.55051744 Ha         -14.98034173 eV
  | van der Waals energy corr.    :          -0.00000054 Ha          -0.00001456 eV
  | Entropy correction            :           0.00000000 Ha           0.00000000 eV
  | ---------------------------
  | Total energy                  :          -0.79835206 Ha         -21.72426491 eV
  | Total energy, T -> 0          :          -0.79835206 Ha         -21.72426491 eV  <-- do not rely on this value for anything but (periodic) metals
  | Electronic free energy        :          -0.79835206 Ha         -21.72426491 eV

  Derived energy quantities:
  | Kinetic energy                :           1.81533271 Ha          49.39771643 eV
  | Electrostatic energy          :          -1.74339810 Ha         -47.44027601 eV
  | Energy correction for multipole
  | error in Hartree potential    :           0.00036236 Ha           0.00986022 eV
  | Sum of eigenvalues per atom                           :         -13.09781610 eV
  | Total energy (T->0) per atom                          :         -10.86213245 eV  <-- do not rely on this value for anything but (periodic) metals
  | Electronic free energy per atom                       :         -10.86213245 eV
  Timings for VdW correction (Tkatchenko-Scheffler 2009 or later):
  | CPU time:        0.003 s, Wall clock time:        0.002 s.

  Energy and forces in a compact form:
  | Total energy uncorrected      :         -0.217242649076927E+02 eV
  | Total energy corrected        :         -0.217242649076927E+02 eV  <-- do not rely on this value for anything but (periodic) metals
  | Electronic free energy        :         -0.217242649076927E+02 eV

  ------------------------------------ 
  Start decomposition of the XC Energy 
  ------------------------------------ 
  Hartree-Fock part   :          0.000000000 Ha              0.000000000 eV
  ------------------------------------ 
  X Energy            :         -0.826503492 Ha            -22.490304314 eV
  C Energy GGA        :         -0.043782648 Ha             -1.191386456 eV
  Total XC Energy     :         -0.870286140 Ha            -23.681690770 eV
  LDA X and C from self-consistent density 
  X Energy LDA        :         -0.723535671 Ha            -19.688407347 eV
  C Energy LDA        :         -0.104107421 Ha             -2.832907073 eV
  ------------------------------------ 
  End decomposition of the XC Energy 
  ------------------------------------ 

------------------------------------------------------------------------------
  Final output of selected total energy values:

  The following output summarizes some interesting total energy values
  at the end of a run (AFTER all relaxation, molecular dynamics, etc.).

  | Total energy of the DFT / Hartree-Fock s.c.f. calculation      :            -21.724264908 eV
  | Final zero-broadening corrected energy (caution - metals only) :            -21.724264908 eV
  | For reference only, the value of 1 Hartree used in FHI-aims is :             27.211384500 eV

  Before relying on these values, please be sure to understand exactly which
  total energy value is referred to by a given number. Different objects may
  all carry the same name 'total energy'. Definitions:

  Total energy of the DFT / Hartree-Fock s.c.f. calculation:
  | Note that this energy does not include ANY quantities calculated after the
  | s.c.f. cycle, in particular not ANY RPA, MP2, etc. many-body perturbation terms.

  Final zero-broadening corrected energy:
  | For metallic systems only, a broadening of the occupation numbers at the Fermi
  | level can be extrapolated back to zero broadening by an electron-gas inspired
  | formula. For all systems that are not real metals, this value can be
  | meaningless and should be avoided.

------------------------------------------------------------------------------

------------------------------------------------------------
          Leaving FHI-aims.
          Date     :  20220120, Time     :  153404.300

          Computational steps:
          | Number of self-consistency cycles          :           29

          Detailed time accounting                     :  max(cpu_time)    wall_clock(cpu1)
          | Total time                                 :        1.002 s           1.076 s
          | Preparation time                           :        0.084 s           0.083 s
          | Grid partitioning                          :        0.008 s           0.007 s
          | Preloading free-atom quantities on grid    :        0.004 s           0.004 s
          | Free-atom superposition energy             :        0.003 s           0.003 s
          | Total time for integrations                :        0.298 s           0.301 s
          | Total time for solution of K.-S. equations :        0.055 s           0.060 s
          | Total time for density update              :        0.203 s           0.178 s
          | Total time for mixing                      :        0.054 s           0.056 s
          | Total time for Hartree multipole update    :        0.042 s           0.044 s
          | Total time for Hartree multipole sum       :        0.144 s           0.144 s
          | Total time for total energy evaluation     :        0.005 s           0.021 s
          | Total time for scaled ZORA corrections     :        0.000 s           0.000 s
          | Total time for vdW correction              :        0.003 s           0.002 s

          Have a nice day.
------------------------------------------------------------
