  MPI-parallelism will be employed.
------------------------------------------------------------
          Invoking FHI-aims ...
          Version 052014
          Git rev. (modified): 096c982 Merge branch master of fhiaims:/pub/localo[...]
          Compiled on 2016/12/16 at 15:22:01 on host login02.hpc.iitd.ac.in.

          When using FHI-aims, please cite the following reference:

          Volker Blum, Ralf Gehrke, Felix Hanke, Paula Havu,
          Ville Havu, Xinguo Ren, Karsten Reuter, and Matthias Scheffler,
          'Ab Initio Molecular Simulations with Numeric Atom-Centered Orbitals: FHI-aims',
          Computer Physics Communications 180, 2175-2196 (2009)

          For any questions about FHI-aims, please visit the aimsclub website
          with its forums and wiki. Contributions to both the forums and the
          wiki are warmly encouraged - they are for you, and everyone is welcome there.

------------------------------------------------------------

  Date     :  20220120, Time     :  152135.713
  Time zero on CPU 1             :   0.117750000000000E-01  s.
  Internal wall clock time zero  :           411924095.713  s.

  Using        8 parallel tasks.
  Task        0 on host csky019 reporting.
  Task        1 on host csky019 reporting.
  Task        2 on host csky019 reporting.
  Task        3 on host csky019 reporting.
  Task        4 on host csky019 reporting.
  Task        5 on host csky019 reporting.
  Task        6 on host csky019 reporting.
  Task        7 on host csky019 reporting.

  Performing system and environment tests:
  | Environment variable OMP_NUM_THREADS correctly set to 1.
  | Stacksize not measured: no C compiler
  | Checking for scalapack...
  | Testing pdtran()...
  | All pdtran() tests passed.

  Obtaining array dimensions for all initial allocations:
  
  -----------------------------------------------------------------------
  Parsing control.in (first pass over file, find array dimensions only).
  The contents of control.in will be repeated verbatim below
  unless switched off by setting 'verbatim_writeout .false.' .
  in the first line of control.in .
  -----------------------------------------------------------------------
  
    xc               pbe
    spin             collinear
    default_initial_moment hund
    relativistic     atomic_zora scalar 1e-9
    occupation_type  gaussian 0.001
    charge        0
    vdw_correction_hirshfeld
    KS_method        scalapack_fast
    mixer            pulay
    charge_mix_param  0.4
    spin_mix_param    0.6
    sc_accuracy_rho  1E-4
    sc_accuracy_eev  1E-5
    sc_accuracy_etot 1E-5
    sc_iter_limit    100
    empty_states     10
  ################################################################################
  #
  #  FHI-aims code project
  # Volker Blum, Fritz Haber Institute Berlin, 2009
  #
  #  Suggested "tight" defaults for H atom (to be pasted into control.in file)
  #
  ################################################################################
    species        H
  #     global species definitions
      nucleus             1
      mass                1.00794
  #
      l_hartree           6
  #
      cut_pot             4.0  2.0  1.0
      basis_dep_cutoff    1e-4
  #
      radial_base         24 7.0
      radial_multiplier   2
      angular_grids       specified
        division   0.1930   50
        division   0.3175  110
        division   0.4293  194
        division   0.5066  302
        division   0.5626  434
  #      division   0.5922  590
  #      division   0.6227  974
  #      division   0.6868 1202
  #      outer_grid  770
        outer_grid  434
  ################################################################################
  #
  #  Definition of "minimal" basis
  #
  ################################################################################
  #     valence basis states
      valence      1  s   1.
  #     ion occupancy
      ion_occ      1  s   0.5
  ################################################################################
  #
  #  Suggested additional basis functions. For production calculations,
  #  uncomment them one after another (the most important basis functions are
  #  listed first).
  #
  #  Basis constructed for dimers: 0.5 A, 0.7 A, 1.0 A, 1.5 A, 2.5 A
  #
  ################################################################################
  #  "First tier" - improvements: -1014.90 meV to -62.69 meV
       hydro 2 s 2.1
       hydro 2 p 3.5
  #  "Second tier" - improvements: -12.89 meV to -1.83 meV
       hydro 1 s 0.85
       hydro 2 p 3.7
       hydro 2 s 1.2
       hydro 3 d 7
  #  "Third tier" - improvements: -0.25 meV to -0.12 meV
  #     hydro 4 f 11.2
  #     hydro 3 p 4.8
  #     hydro 4 d 9
  #     hydro 3 s 3.2
  ################################################################################
  #
  # For methods that use the localized form of the "resolution of identity" for
  # the two-electron Coulomb operator (RI_method LVL), particularly Hartree-Fock and
  # hybrid density functional calculations, the highest accuracy can be obtained by
  # uncommenting the line beginning with "for_aux"  below, thus adding an extra g radial
  # function to the construction of the product basis set for the expansion.
  # See Ref. New J. Phys. 17, 093020 (2015) for more information, particularly Figs. 1 and 6.
  #
  ################################################################################
  #
  # for_aux hydro 5 g 6.0
  
  -----------------------------------------------------------------------
  Completed first pass over input file control.in .
  -----------------------------------------------------------------------
  
  
  -----------------------------------------------------------------------
  Parsing geometry.in (first pass over file, find array dimensions only).
  The contents of geometry.in will be repeated verbatim below
  unless switched off by setting 'verbatim_writeout .false.' .
  in the first line of geometry.in .
  -----------------------------------------------------------------------
  
  atom 0 0 0 H
  atom 0 0 0.87 H
  
  -----------------------------------------------------------------------
  Completed first pass over input file geometry.in .
  -----------------------------------------------------------------------
  

  Basic array size parameters:
  | Number of species                 :        1
  | Number of atoms                   :        2
  | Max. basis fn. angular momentum   :        2
  | Max. atomic/ionic basis occupied n:        1
  | Max. number of basis fn. types    :        2
  | Max. radial fns per species/type  :        6
  | Max. logarithmic grid size        :     1131
  | Max. radial integration grid size :       49
  | Max. angular integration grid size:      434
  | Max. angular grid division number :        8
  | Radial grid for Hartree potential :     1131
  | Number of spin channels           :        2

------------------------------------------------------------
          Reading file control.in.
------------------------------------------------------------
  XC: Using PBE gradient-corrected functionals.
  Spin treatment: Spin density functional theory - collinear spins.
  Initial spin moment per atom set according to Hund's rules.
  Scalar relativistic treatment of kinetic energy: on-site free-atom approximation to ZORA.
  Occupation type: Gaussian broadening, width =   0.100000E-02 eV.
  Charge =   0.000000E+00: Neutral system requested explicitly.
  Using non-empirical van der Waals correction (Hirshfeld partitioning):
  Kohn-Sham eigenvalues and eigenfunctions calculated by the ELPA eigensolver library.
  Using pulay charge density mixing.
  Charge density mixing - mixing parameter:     0.4000
  Spin density mixing - mixing parameter:     0.6000
  Convergence accuracy of self-consistent charge density: 0.1000E-03
  Convergence accuracy of sum of eigenvalues: 0.1000E-04
  Convergence accuracy of total energy: 0.1000E-04
  Maximum number of s.-c. iterations  :   100
  Number of empty states per atom:       10
 
  Reading configuration options for species H                   .
  | Found nuclear charge :   1.0000
  | Found atomic mass :    1.00794000000000      amu
  | Found l_max for Hartree potential  :   6
  | Found cutoff potl. onset [A], width [A], scale factor :    4.00000    2.00000    1.00000
  | Threshold for basis-dependent cutoff potential is   0.100000E-03
  | Found data for basic radial integration grid :    24 points, outermost radius =    7.000 A
  | Found multiplier for basic radial grid :   2
  | Found angular grid specification: user-specified.
  | Specified grid contains     6 separate shells.
  | Check grid settings after all constraints further below.
  | Found free-atom valence shell :  1 s   1.000
  | No ionic wave fns used. Skipping ion_occ.
  | Found hydrogenic basis function :  2 s   2.100
  | Found hydrogenic basis function :  2 p   3.500
  | Found hydrogenic basis function :  1 s   0.850
  | Found hydrogenic basis function :  2 p   3.700
  | Found hydrogenic basis function :  2 s   1.200
  | Found hydrogenic basis function :  3 d   7.000
  Species H                   : Missing cutoff potential type.
  Defaulting to exp(1/x)/(1-x)^2 type cutoff potential.
  Species H : No 'logarithmic' tag. Using default grid for free atom:
  | Default logarithmic grid data [bohr] : 0.1000E-03 0.1000E+03 0.1012E+01
  Species H : On-site basis accuracy parameter (for Gram-Schmidt orthonormalisation) not specified.
  Using default value basis_acc =  0.1000000E-03.
  Species H                   : Using default innermost maximum threshold i_radial=  2 for radial functions.
  Species H                   : Default cutoff onset for free atom density etc. : 0.40000000E+01 AA.
  Species H                   : Basic radial grid will be enhanced according to radial_multiplier =   2, to contain    49 grid points.
 
  Finished reading input file 'control.in'. Consistency checks are next.
 
  Target number of points in a grid batch is not set. Defaulting to  100
  Method for grid partitioning is not set. Defaulting to parallel hash+maxmin partitioning.
  Batch size limit is not set. Defaulting to    200
  By default, will store active basis functions for each batch.
  If in need of memory, prune_basis_once .false. can be used to disable this option.
  communication_type for Hartree potential was not specified.
  Defaulting to calc_hartree .
  Pulay mixer: Number of relevant iterations not set.
  Defaulting to    8 iterations.
  Pulay mixer: Number of initial linear mixing iterations not set.
  Defaulting to    0 iterations.
  Work space size for distributed Hartree potential not set.
  Defaulting to   0.200000E+03 MB.
  Algorithm-dependent basis array size parameters:
  | n_max_pulay                         :        8
  Calculation of forces was not defined in control.in. No forces will be calculated.
  Geometry relaxation not requested: no relaxation will be performed.
  No accuracy limit for integral partition fn. given. Defaulting to 0.1000E-14.
  No threshold value for u(r) in integrations given. Defaulting to 0.1000E-05.
  No accuracy for occupation numbers given. Defaulting to 0.1000E-07.
  No threshold value for occupation numbers given. Defaulting to 0.0000E+00.
  No accuracy for fermi level given. Defaulting to 0.1000E-19.
  Maximum # of iterations to find E_F not set. Defaulting to  200.
  Will not use alltoall communication since running on < 1024 CPUs.
  Threshold for basis singularities not set.
  Default threshold for basis singularities: 0.1000E-04
  partition_type (choice of integration weights) for integrals was not specified.
  | Using a version of the partition function of Stratmann and coworkers ('stratmann_smoother').
  | At each grid point, the set of atoms used to build the partition table is smoothly restricted to
  | only those atoms whose free-atom density would be non-zero at that grid point.
  Partitioning for Hartree potential was not defined. Using partition_type for integrals.
  | Adjusted default value of keyword multip_moments_threshold to:       0.10000000E-11
  | This value may affect high angular momentum components of the Hartree potential in periodic systems.
  No q(lm)/r^(l+1) cutoff set for long-range Hartree potential.
  | Using default value of  0.100000E-09 .
  | Verify using the multipole_threshold keyword.
  Defaulting to new monopole extrapolation.
  Density update method: automatic selection selected.
------------------------------------------------------------


------------------------------------------------------------
          Reading geometry description geometry.in.
------------------------------------------------------------
  Input structure read successfully.
  The structure contains        2 atoms,  and a total of          2.000 electrons.

  Input geometry:
  | No unit cell requested.
  | Atomic structure:
  |       Atom                x [A]            y [A]            z [A]
  |    1: Species H              0.000000         0.000000         0.000000
  |    2: Species H              0.000000         0.000000         0.870000
  |

  | The smallest distance between any two atoms is         0.87000000 AA.
  |
  | The first atom of this pair is atom number                      1 .
  | The second atom of this pair is atom number                     2 .

  Initial moments and charges:
  |  Atom   Moment         Charge        Species
  |     1  (Hund's rule)   0.000000E+00   H
  |     2  (Hund's rule)   0.000000E+00   H

  Structure-dependent array size parameters: 
  | Number of distinct atom types in initial rho :        1
  | Maximum number of distinct radial functions  :        7
  | Maximum number of basis functions            :       30
  | Number of Kohn-Sham states (occupied + empty):       11
------------------------------------------------------------

------------------------------------------------------------
          Preparing all fixed parts of the calculation.
------------------------------------------------------------
  Determining machine precision:
    2.225073858507201E-308
  Setting up grids for atomic and cluster calculations.

  Creating wave function, potential, and density for free atoms.

  Species: H

  List of occupied orbitals and eigenvalues:
    n    l              occ      energy [Ha]    energy [eV]
    1    0           1.0000        -0.238386        -6.4868

  Spin-polarized or charged system:
  Charge density initialized according to selected moments and charges.

  Creating spin-polarized density from free atoms.

  Species: H
  Charge:   0.000000
  applying Hund's rules ...

  List of occupied orbitals and eigenvalues:
    n    l      energy [Ha]    energy [eV]    occupation
  Spin-up
    1    0        -0.278991        -7.5917     1.00000000
  Spin-down
    1    0         0.090850         2.4721     0.00000000

  Creating fixed part of basis set: Ionic, confined, hydrogenic.
 
  H                    hydrogenic:
 
  List of hydrogenic basis orbitals: 
    n    l      effective z      eigenvalue [eV]  inner max. [A]     outer max. [A]     outer radius [A]   
    2    0         2.100000       -14.9965           0.193243           1.317208           5.373006
    2    1         3.500000       -41.6672           0.602369           0.602369           4.056063
    1    0         0.850000        -9.8292           0.624871           0.624871           5.373006
    2    1         3.700000       -46.5653           0.573622           0.573622           3.910002
    2    0         1.200000        -4.5995           0.334980           2.228188           5.505995
    3    2         7.000000       -74.0753           0.680699           0.680699           3.769201
 

  Adding cutoff potential to free-atom effective potential.
  Creating atomic-like basis functions for current effective potential.

  Species H                   :

  List of atomic basis orbitals and eigenvalues:
    n    l      energy [Ha]    energy [eV]    outer radius [A]
    1    0        -0.238386        -6.4868       5.373006

  Assembling full basis from fixed parts.
  | Species H :   atomic orbital   1 s accepted.
  | Species H :    hydro orbital   2 s accepted.
  | Species H :    hydro orbital   1 s accepted.
  | Species H :    hydro orbital   2 s accepted.
  | Species H :    hydro orbital   2 p accepted.
  | Species H :    hydro orbital   2 p accepted.
  | Species H :    hydro orbital   3 d accepted.
 
  Basis size parameters after reduction:
  | Total number of radial functions:        7
  | Total number of basis functions :       30
 
  Testing on-site integration grid accuracy.
  |  Species  Function  <phi|h_atom|phi> (log., in eV)  <phi|h_atom|phi> (rad., in eV)
           1        1                 -6.4870767962                 -6.4871688290
           1        2                 13.5032046589                 13.5028982997
           1        3                 32.8195184817                 32.8119941656
           1        4                 33.8513856511                 33.7670005767 ***
           1        5                 28.8544614965                 28.8544615203
           1        6                 59.6326952547                 59.6327656460
           1        7                 60.2719308513                 60.2719305949
 * Note: Onsite integrals marked "***" above are less accurate than
 * onsite_accuracy_threshold =    0.03000 eV. Usually, this is harmless.
 * When in doubt, tighten the "radial" and/or "radial_multiplier" flags to check.

  Preparing densities etc. for the partition functions (integrals / Hartree potential).

  Preparations completed.
  max(cpu_time)          :      0.079 s.
  Wall clock time (cpu1) :      0.083 s.
------------------------------------------------------------

------------------------------------------------------------
          Begin self-consistency loop: Initialization.

          Date     :  20220120, Time     :  152135.871
------------------------------------------------------------

  Initializing index lists of integration centers etc. from given atomic structure:
  | Number of centers in hartree potential         :         2
  | Number of centers in hartree multipole         :         2
  | Number of centers in electron density summation:         2
  | Number of centers in basis integrals           :         2
  | Number of centers in integrals                 :         2
  Using modified Scalapack Eigenvalue solver (ELPA)
  * Using 8 tasks for Scalapack Eigenvalue solver.
  Detailed listing of tasks and assigned k-points:
  (for non-periodic systems, the "k-point" denotes an internal label only)
   Task     0 k-point     1 on csky019
   Task     1 k-point     1 on csky019
   Task     2 k-point     1 on csky019
   Task     3 k-point     1 on csky019
   Task     4 k-point     1 on csky019
   Task     5 k-point     1 on csky019
   Task     6 k-point     1 on csky019
   Task     7 k-point     1 on csky019
  Tasks:     8 split into      4 X      2 BLACS grid
  Calculating blocksize based on n_basis =           30 max_nprow =            4 max_npcol =            2
  Scalapack blocksize set to:            4
  Required Scalapack workspace - INTEGER:            1 REAL:             1
  Partitioning the integration grid into batches with parallel hashing+maxmin method.
  | Number of batches:      444
  | Maximal batch size:     197
  | Minimal batch size:      49
  | Average batch size:      65.090
  | Standard deviation of batch sizes:      18.618

  Integration load balanced across     8 MPI tasks.
  Work distribution over tasks is as follows:
  Task     0 has       3646 integration points.
  Task     1 has       3583 integration points.
  Task     2 has       3588 integration points.
  Task     3 has       3677 integration points.
  Task     4 has       3585 integration points.
  Task     5 has       3591 integration points.
  Task     6 has       3611 integration points.
  Task     7 has       3619 integration points.
  Initializing partition tables, free-atom densities, potentials, etc. across the integration grid (initialize_grid_storage).
  | initialize_grid_storage: Actual outermost partition radius vs. multipole_radius_free
  | (-- VB: in principle, multipole_radius_free should be larger, hence this output)
  | Species        1: outer_partition_radius =              6.000000000000000 AA, multipole_radius_free =              6.071692442739658 AA.
  | Original list of interatomic distances with           2 x          2 entries is created.
  | Net number of integration points:    28900
  | of which are non-zero points    :    26814
  Obtaining max. number of non-zero basis functions in each batch (get_n_compute_maxes).
  | Maximal number of non-zero basis functions:       30 in task     0
  | Maximal number of non-zero basis functions:       30 in task     1
  | Maximal number of non-zero basis functions:       30 in task     2
  | Maximal number of non-zero basis functions:       30 in task     3
  | Maximal number of non-zero basis functions:       30 in task     4
  | Maximal number of non-zero basis functions:       30 in task     5
  | Maximal number of non-zero basis functions:       30 in task     6
  | Maximal number of non-zero basis functions:       30 in task     7
  Selecting the method for density update.
  Loop over occupied states selected for charge density update.
  Integrating Hamiltonian matrix: batch-based integration.
  Time summed over all CPUs for integration: real work        0.083 s, elapsed        0.094 s
  Integrating overlap matrix.
  Time summed over all CPUs for integration: real work        0.021 s, elapsed        0.025 s
  Deallocating overlap matrix.

  Updating Kohn-Sham eigenvalues, eigenvectors, occupation numbers, and Fermi level.
  Solving generalized eigenproblem
  Solving real symmetric generalised eigenvalue problem by standard ScaLAPACK.
  Transforming overlap matrix with ScaLAPACK and checking for singularities.
  : Overlap matrix is nonsingular, using Cholesky decomposition
  | Lowest eigenvalue:  0.564924E-03
  Factoring overlap matrix with Cholesky decomposition
  Using Cholesky factor for transformation
  Using 1-stage real ELPA solver
  Solving real symmetric generalised eigenvalue problem by standard ScaLAPACK.
  Using Cholesky factor for transformation
  Using 1-stage real ELPA solver
  Determining occupation numbers for Kohn-Sham eigenstates.
  | Chemical potential (Fermi level) in eV                 : -.65865266E+00
  | Error in electron count due to remaining E_F inaccuracy: 0.00000000E+00
  | Maximum occupation number of highest empty state:  0.00E+00

  Writing Kohn-Sham eigenvalues.

  Spin-up eigenvalues:

  State    Occupation    Eigenvalue [Ha]    Eigenvalue [eV]
      1       1.00000          -0.534727          -14.55065
      2       1.00000          -0.082594           -2.24750
      3       0.00000           0.013672            0.37202
      4       0.00000           0.094852            2.58105
      5       0.00000           0.215617            5.86725
      6       0.00000           0.215617            5.86725
      7       0.00000           0.314589            8.56041
      8       0.00000           0.434734           11.82972
      9       0.00000           0.618822           16.83900
     10       0.00000           0.648824           17.65539
     11       0.00000           0.648824           17.65539

  Spin-down eigenvalues:

  State    Occupation    Eigenvalue [Ha]    Eigenvalue [eV]
      1       0.00000           0.099361            2.70376
      2       0.00000           0.116215            3.16237
      3       0.00000           0.504208           13.72019
      4       0.00000           0.541160           14.72570
      5       0.00000           1.135363           30.89480
      6       0.00000           1.135363           30.89480
      7       0.00000           1.266476           34.46256
      8       0.00000           1.511913           41.14125
      9       0.00000           1.511913           41.14125
     10       0.00000           1.547243           42.10263
     11       0.00000           1.631923           44.40689

  Current spin moment of the entire structure :
  | N = N_up - N_down :    2.00
  | S                 :    1.00
  | J                 :    3.00

  Highest occupied state (VBM) at     -2.24749922 eV
  | Occupation number:      1.00000000
  | Spin channel:        1

  Lowest unoccupied state (CBM) at     0.37202357 eV
  | Occupation number:      0.00000000
  | Spin channel:        1

  Overall HOMO-LUMO gap:      2.61952279 eV.
  Calculating total energy contributions from superposition of free atom densities.

  Total energy components:
  | Sum of eigenvalues            :          -0.61732076 Ha         -16.79815250 eV
  | XC energy correction          :          -0.67322500 Ha         -18.31938444 eV
  | XC potential correction       :           0.86803541 Ha          23.62044542 eV
  | Free-atom electrostatic energy:          -0.42064408 Ha         -11.44630786 eV
  | Hartree energy correction     :           0.00000000 Ha           0.00000000 eV
  | van der Waals energy corr.    :           0.00000000 Ha           0.00000000 eV
  | Entropy correction            :           0.00000000 Ha           0.00000000 eV
  | ---------------------------
  | Total energy                  :          -0.84315443 Ha         -22.94339938 eV
  | Total energy, T -> 0          :          -0.84315443 Ha         -22.94339938 eV  <-- do not rely on this value for anything but (periodic) metals
  | Electronic free energy        :          -0.84315443 Ha         -22.94339938 eV

  Derived energy quantities:
  | Kinetic energy                :           1.14859388 Ha          31.25482983 eV
  | Electrostatic energy          :          -1.31852331 Ha         -35.87884476 eV
  | Energy correction for multipole
  | error in Hartree potential    :           0.00000000 Ha           0.00000000 eV
  | Sum of eigenvalues per atom                           :          -8.39907625 eV
  | Total energy (T->0) per atom                          :         -11.47169969 eV  <-- do not rely on this value for anything but (periodic) metals
  | Electronic free energy per atom                       :         -11.47169969 eV
  Initialize hartree_potential_storage
  Max. number of atoms included in rho_multipole:            2

  End scf initialization - timings             :  max(cpu_time)    wall_clock(cpu1)
  | Time for scf. initialization               :        0.042 s           0.043 s
  | Boundary condition initialization          :        0.000 s           0.001 s
  | Integration                                :        0.015 s           0.015 s
  | Solution of K.-S. eqns.                    :        0.007 s           0.008 s
  | Grid partitioning                          :        0.007 s           0.008 s
  | Preloading free-atom quantities on grid    :        0.004 s           0.003 s
  | Free-atom superposition energy             :        0.003 s           0.003 s
  | Total energy evaluation                    :        0.000 s           0.001 s
------------------------------------------------------------

------------------------------------------------------------
          Begin self-consistency iteration #    1

  Date     :  20220120, Time     :  152135.914
------------------------------------------------------------
  Evaluating new KS density.
  Integration grid: deviation in total charge (<rho> - N_e) =   2.740752E-07
  | <rho_up-rho_dn> = N_up-N_dn =      2.0000; <|rho_up-rho_dn|> =      2.0627
  Pulay mixing of updated and previous charge densities.

  Evaluating partitioned Hartree potential by multipole expansion.
  | Analytical far-field extrapolation by fixed multipoles:
  | Hartree multipole sum: apparent total charge =  -0.507975E-05
  Summing up the Hartree potential.
  Time summed over all CPUs for potential: real work        0.034 s, elapsed        0.035 s
  | RMS charge density error from multipole expansion :   0.647276E-03

  Integrating Hamiltonian matrix: batch-based integration.
  Time summed over all CPUs for integration: real work        0.067 s, elapsed        0.072 s

  Updating Kohn-Sham eigenvalues, eigenvectors, occupation numbers, and Fermi level.
  Solving generalized eigenproblem
  Solving real symmetric generalised eigenvalue problem by standard ScaLAPACK.
  Using Cholesky factor for transformation
  Using 1-stage real ELPA solver
  Solving real symmetric generalised eigenvalue problem by standard ScaLAPACK.
  Using Cholesky factor for transformation
  Using 1-stage real ELPA solver
  Determining occupation numbers for Kohn-Sham eigenstates.
  | Chemical potential (Fermi level) in eV                 : -.36877128E+01
  | Error in electron count due to remaining E_F inaccuracy: 0.00000000E+00
  | Maximum occupation number of highest empty state:  0.00E+00

  Writing Kohn-Sham eigenvalues.

  Spin-up eigenvalues:

  State    Occupation    Eigenvalue [Ha]    Eigenvalue [eV]
      1       1.00000          -0.396656          -10.79355
      2       0.00000           0.070415            1.91609
      3       0.00000           0.075226            2.04700
      4       0.00000           0.195856            5.32951
      5       0.00000           0.272669            7.41969
      6       0.00000           0.272669            7.41969
      7       0.00000           0.384051           10.45057
      8       0.00000           0.581661           15.82780
      9       0.00000           0.768809           20.92035
     10       0.00000           0.768809           20.92035
     11       0.00000           0.825597           22.46563

  Spin-down eigenvalues:

  State    Occupation    Eigenvalue [Ha]    Eigenvalue [eV]
      1       1.00000          -0.204167           -5.55567
      2       0.00000           0.091570            2.49173
      3       0.00000           0.093479            2.54370
      4       0.00000           0.252898            6.88172
      5       0.00000           0.379817           10.33534
      6       0.00000           0.379817           10.33534
      7       0.00000           0.457746           12.45591
      8       0.00000           0.686488           18.68030
      9       0.00000           0.856173           23.29766
     10       0.00000           0.856173           23.29766
     11       0.00000           0.862935           23.48166

  Current spin moment of the entire structure :
  | N = N_up - N_down :    0.00
  | S                 :    0.00
  | J                 :    1.00

  Highest occupied state (VBM) at     -5.55567063 eV
  | Occupation number:      1.00000000
  | Spin channel:        2

  Lowest unoccupied state (CBM) at     1.91609432 eV
  | Occupation number:      0.00000000
  | Spin channel:        1

  Overall HOMO-LUMO gap:      7.47176494 eV.

  Total energy components:
  | Sum of eigenvalues            :          -0.60082275 Ha         -16.34921898 eV
  | XC energy correction          :          -0.40689063 Ha         -11.07205729 eV
  | XC potential correction       :           0.52439164 Ha          14.26942247 eV
  | Free-atom electrostatic energy:          -0.42064408 Ha         -11.44630786 eV
  | Hartree energy correction     :          -0.00847445 Ha          -0.23060151 eV
  | van der Waals energy corr.    :           0.00000000 Ha           0.00000000 eV
  | Entropy correction            :           0.00000000 Ha           0.00000000 eV
  | ---------------------------
  | Total energy                  :          -0.91244028 Ha         -24.82876317 eV
  | Total energy, T -> 0          :          -0.91244028 Ha         -24.82876317 eV  <-- do not rely on this value for anything but (periodic) metals
  | Electronic free energy        :          -0.91244028 Ha         -24.82876317 eV

  Derived energy quantities:
  | Kinetic energy                :           0.87185284 Ha          23.72432293 eV
  | Electrostatic energy          :          -1.37740249 Ha         -37.48102881 eV
  | Energy correction for multipole
  | error in Hartree potential    :          -0.00016083 Ha          -0.00437638 eV
  | Sum of eigenvalues per atom                           :          -8.17460949 eV
  | Total energy (T->0) per atom                          :         -12.41438159 eV  <-- do not rely on this value for anything but (periodic) metals
  | Electronic free energy per atom                       :         -12.41438159 eV

  Self-consistency convergence accuracy:
  | Change of charge/spin density : 0.4298E-01 0.4298E-01
  | Change of sum of eigenvalues  : 0.4489E+00 eV
  | Change of total energy        : -.1885E+01 eV

  End self-consistency iteration #     1       :  max(cpu_time)    wall_clock(cpu1)
  | Time for this iteration                    :        0.027 s           0.027 s
  | Charge density update                      :        0.007 s           0.007 s
  | Density mixing                             :        0.001 s           0.001 s
  | Hartree multipole update                   :        0.001 s           0.001 s
  | Hartree multipole summation                :        0.005 s           0.005 s
  | Integration                                :        0.009 s           0.010 s
  | Solution of K.-S. eqns.                    :        0.001 s           0.001 s
  | Total energy evaluation                    :        0.000 s           0.001 s
------------------------------------------------------------

------------------------------------------------------------
          Begin self-consistency iteration #    2

  Date     :  20220120, Time     :  152135.943
------------------------------------------------------------
  Evaluating new KS density.
  Integration grid: deviation in total charge (<rho> - N_e) =   1.644451E-07
  | <rho_up-rho_dn> = N_up-N_dn =     -2.0000; <|rho_up-rho_dn|> =      2.0000
  Pulay mixing of updated and previous charge densities.

  Evaluating partitioned Hartree potential by multipole expansion.
  | Analytical far-field extrapolation by fixed multipoles:
  | Hartree multipole sum: apparent total charge =  -0.499989E-05
  Summing up the Hartree potential.
  Time summed over all CPUs for potential: real work        0.033 s, elapsed        0.034 s
  | RMS charge density error from multipole expansion :   0.622579E-03

  Integrating Hamiltonian matrix: batch-based integration.
  Time summed over all CPUs for integration: real work        0.070 s, elapsed        0.075 s

  Updating Kohn-Sham eigenvalues, eigenvectors, occupation numbers, and Fermi level.
  Solving generalized eigenproblem
  Solving real symmetric generalised eigenvalue problem by standard ScaLAPACK.
  Using Cholesky factor for transformation
  Using 1-stage real ELPA solver
  Solving real symmetric generalised eigenvalue problem by standard ScaLAPACK.
  Using Cholesky factor for transformation
  Using 1-stage real ELPA solver
  Determining occupation numbers for Kohn-Sham eigenstates.
  | Chemical potential (Fermi level) in eV                 : -.58967968E+01
  | Error in electron count due to remaining E_F inaccuracy: 0.00000000E+00
  | Maximum occupation number of highest empty state:  0.00E+00

  Current spin moment of the entire structure :
  | N = N_up - N_down :    0.00
  | S                 :    0.00
  | J                 :    1.00

  Highest occupied state (VBM) at     -7.15886597 eV
  | Occupation number:      1.00000000
  | Spin channel:        2

  Lowest unoccupied state (CBM) at     0.66288467 eV
  | Occupation number:      0.00000000
  | Spin channel:        1

  Overall HOMO-LUMO gap:      7.82175064 eV.

  Total energy components:
  | Sum of eigenvalues            :          -0.75725546 Ha         -20.60596960 eV
  | XC energy correction          :          -0.55774920 Ha         -15.17712783 eV
  | XC potential correction       :           0.72049849 Ha          19.60576142 eV
  | Free-atom electrostatic energy:          -0.42064408 Ha         -11.44630786 eV
  | Hartree energy correction     :          -0.01094985 Ha          -0.29796062 eV
  | van der Waals energy corr.    :           0.00000000 Ha           0.00000000 eV
  | Entropy correction            :           0.00000000 Ha           0.00000000 eV
  | ---------------------------
  | Total energy                  :          -1.02610010 Ha         -27.92160448 eV
  | Total energy, T -> 0          :          -1.02610010 Ha         -27.92160448 eV  <-- do not rely on this value for anything but (periodic) metals
  | Electronic free energy        :          -1.02610010 Ha         -27.92160448 eV

  Derived energy quantities:
  | Kinetic energy                :           0.91057224 Ha          24.77793135 eV
  | Electrostatic energy          :          -1.37892315 Ha         -37.52240800 eV
  | Energy correction for multipole
  | error in Hartree potential    :          -0.00015686 Ha          -0.00426842 eV
  | Sum of eigenvalues per atom                           :         -10.30298480 eV
  | Total energy (T->0) per atom                          :         -13.96080224 eV  <-- do not rely on this value for anything but (periodic) metals
  | Electronic free energy per atom                       :         -13.96080224 eV

  Self-consistency convergence accuracy:
  | Change of charge/spin density : 0.1156E+00 0.2783E+00
  | Change of sum of eigenvalues  : -.4257E+01 eV
  | Change of total energy        : -.3093E+01 eV

  End self-consistency iteration #     2       :  max(cpu_time)    wall_clock(cpu1)
  | Time for this iteration                    :        0.026 s           0.025 s
  | Charge density update                      :        0.006 s           0.006 s
  | Density mixing                             :        0.001 s           0.001 s
  | Hartree multipole update                   :        0.001 s           0.001 s
  | Hartree multipole summation                :        0.005 s           0.005 s
  | Integration                                :        0.009 s           0.009 s
  | Solution of K.-S. eqns.                    :        0.001 s           0.002 s
  | Total energy evaluation                    :        0.000 s           0.001 s
------------------------------------------------------------

------------------------------------------------------------
          Begin self-consistency iteration #    3

  Date     :  20220120, Time     :  152135.970
------------------------------------------------------------
  Evaluating new KS density.
  Integration grid: deviation in total charge (<rho> - N_e) =   1.616127E-07
  | <rho_up-rho_dn> = N_up-N_dn =     -1.9483; <|rho_up-rho_dn|> =      1.9483
  Pulay mixing of updated and previous charge densities.

  Evaluating partitioned Hartree potential by multipole expansion.
  | Analytical far-field extrapolation by fixed multipoles:
  | Hartree multipole sum: apparent total charge =  -0.505695E-05
  Summing up the Hartree potential.
  Time summed over all CPUs for potential: real work        0.033 s, elapsed        0.034 s
  | RMS charge density error from multipole expansion :   0.597860E-03

  Integrating Hamiltonian matrix: batch-based integration.
  Time summed over all CPUs for integration: real work        0.070 s, elapsed        0.074 s

  Updating Kohn-Sham eigenvalues, eigenvectors, occupation numbers, and Fermi level.
  Solving generalized eigenproblem
  Solving real symmetric generalised eigenvalue problem by standard ScaLAPACK.
  Using Cholesky factor for transformation
  Using 1-stage real ELPA solver
  Solving real symmetric generalised eigenvalue problem by standard ScaLAPACK.
  Using Cholesky factor for transformation
  Using 1-stage real ELPA solver
  Determining occupation numbers for Kohn-Sham eigenstates.
  | Chemical potential (Fermi level) in eV                 : -.56900623E+01
  | Error in electron count due to remaining E_F inaccuracy: 0.00000000E+00
  | Maximum occupation number of highest empty state:  0.00E+00

  Current spin moment of the entire structure :
  | N = N_up - N_down :    0.00
  | S                 :    0.00
  | J                 :    1.00

  Highest occupied state (VBM) at     -6.60312910 eV
  | Occupation number:      1.00000000
  | Spin channel:        2

  Lowest unoccupied state (CBM) at     0.91223729 eV
  | Occupation number:      0.00000000
  | Spin channel:        1

  Overall HOMO-LUMO gap:      7.51536639 eV.

  Total energy components:
  | Sum of eigenvalues            :          -0.72843729 Ha         -19.82178722 eV
  | XC energy correction          :          -0.53774718 Ha         -14.63284529 eV
  | XC potential correction       :           0.69457900 Ha          18.90045632 eV
  | Free-atom electrostatic energy:          -0.42064408 Ha         -11.44630786 eV
  | Hartree energy correction     :          -0.00604531 Ha          -0.16450134 eV
  | van der Waals energy corr.    :           0.00000000 Ha           0.00000000 eV
  | Entropy correction            :           0.00000000 Ha           0.00000000 eV
  | ---------------------------
  | Total energy                  :          -0.99829486 Ha         -27.16498539 eV
  | Total energy, T -> 0          :          -0.99829486 Ha         -27.16498539 eV  <-- do not rely on this value for anything but (periodic) metals
  | Electronic free energy        :          -0.99829486 Ha         -27.16498539 eV

  Derived energy quantities:
  | Kinetic energy                :           0.90868130 Ha          24.72647624 eV
  | Electrostatic energy          :          -1.36922898 Ha         -37.25861634 eV
  | Energy correction for multipole
  | error in Hartree potential    :          -0.00014916 Ha          -0.00405895 eV
  | Sum of eigenvalues per atom                           :          -9.91089361 eV
  | Total energy (T->0) per atom                          :         -13.58249270 eV  <-- do not rely on this value for anything but (periodic) metals
  | Electronic free energy per atom                       :         -13.58249270 eV

  Self-consistency convergence accuracy:
  | Change of charge/spin density : 0.1290E+00 0.2666E+00
  | Change of sum of eigenvalues  : 0.7842E+00 eV
  | Change of total energy        : 0.7566E+00 eV

  End self-consistency iteration #     3       :  max(cpu_time)    wall_clock(cpu1)
  | Time for this iteration                    :        0.026 s           0.026 s
  | Charge density update                      :        0.007 s           0.006 s
  | Density mixing                             :        0.001 s           0.002 s
  | Hartree multipole update                   :        0.001 s           0.001 s
  | Hartree multipole summation                :        0.005 s           0.005 s
  | Integration                                :        0.009 s           0.009 s
  | Solution of K.-S. eqns.                    :        0.001 s           0.002 s
  | Total energy evaluation                    :        0.000 s           0.001 s
------------------------------------------------------------

------------------------------------------------------------
          Begin self-consistency iteration #    4

  Date     :  20220120, Time     :  152136.000
------------------------------------------------------------
  Evaluating new KS density.
  Integration grid: deviation in total charge (<rho> - N_e) =   1.622745E-07
  | <rho_up-rho_dn> = N_up-N_dn =     -1.9588; <|rho_up-rho_dn|> =      1.9588
  Pulay mixing of updated and previous charge densities.

  Evaluating partitioned Hartree potential by multipole expansion.
  | Analytical far-field extrapolation by fixed multipoles:
  | Hartree multipole sum: apparent total charge =  -0.504368E-05
  Summing up the Hartree potential.
  Time summed over all CPUs for potential: real work        0.035 s, elapsed        0.037 s
  | RMS charge density error from multipole expansion :   0.541359E-03

  Integrating Hamiltonian matrix: batch-based integration.
  Time summed over all CPUs for integration: real work        0.076 s, elapsed        0.084 s

  Updating Kohn-Sham eigenvalues, eigenvectors, occupation numbers, and Fermi level.
  Solving generalized eigenproblem
  Solving real symmetric generalised eigenvalue problem by standard ScaLAPACK.
  Using Cholesky factor for transformation
  Using 1-stage real ELPA solver
  Solving real symmetric generalised eigenvalue problem by standard ScaLAPACK.
  Using Cholesky factor for transformation
  Using 1-stage real ELPA solver
  Determining occupation numbers for Kohn-Sham eigenstates.
  | Chemical potential (Fermi level) in eV                 : -.32157479E+01
  | Error in electron count due to remaining E_F inaccuracy: 0.00000000E+00
  | Maximum occupation number of highest empty state:  0.00E+00

  Current spin moment of the entire structure :
  | N = N_up - N_down :    0.00
  | S                 :    0.00
  | J                 :    1.00

  Highest occupied state (VBM) at     -5.80097010 eV
  | Occupation number:      1.00000000
  | Spin channel:        2

  Lowest unoccupied state (CBM) at     1.28923959 eV
  | Occupation number:      0.00000000
  | Spin channel:        1

  Overall HOMO-LUMO gap:      7.09020969 eV.

  Total energy components:
  | Sum of eigenvalues            :          -0.58122576 Ha         -15.81595774 eV
  | XC energy correction          :          -0.40891639 Ha         -11.12718105 eV
  | XC potential correction       :           0.52487366 Ha          14.28253899 eV
  | Free-atom electrostatic energy:          -0.42064408 Ha         -11.44630786 eV
  | Hartree energy correction     :          -0.00108860 Ha          -0.02962236 eV
  | van der Waals energy corr.    :           0.00000000 Ha           0.00000000 eV
  | Entropy correction            :           0.00000000 Ha           0.00000000 eV
  | ---------------------------
  | Total energy                  :          -0.88700118 Ha         -24.13653003 eV
  | Total energy, T -> 0          :          -0.88700118 Ha         -24.13653003 eV  <-- do not rely on this value for anything but (periodic) metals
  | Electronic free energy        :          -0.88700118 Ha         -24.13653003 eV

  Derived energy quantities:
  | Kinetic energy                :           0.88002033 Ha          23.94657159 eV
  | Electrostatic energy          :          -1.35810512 Ha         -36.95592056 eV
  | Energy correction for multipole
  | error in Hartree potential    :          -0.00013337 Ha          -0.00362918 eV
  | Sum of eigenvalues per atom                           :          -7.90797887 eV
  | Total energy (T->0) per atom                          :         -12.06826502 eV  <-- do not rely on this value for anything but (periodic) metals
  | Electronic free energy per atom                       :         -12.06826502 eV

  Self-consistency convergence accuracy:
  | Change of charge/spin density : 0.1232E+00 0.2616E+00
  | Change of sum of eigenvalues  : 0.4006E+01 eV
  | Change of total energy        : 0.3028E+01 eV

  End self-consistency iteration #     4       :  max(cpu_time)    wall_clock(cpu1)
  | Time for this iteration                    :        0.029 s           0.028 s
  | Charge density update                      :        0.008 s           0.007 s
  | Density mixing                             :        0.001 s           0.001 s
  | Hartree multipole update                   :        0.001 s           0.002 s
  | Hartree multipole summation                :        0.005 s           0.005 s
  | Integration                                :        0.011 s           0.010 s
  | Solution of K.-S. eqns.                    :        0.001 s           0.002 s
  | Total energy evaluation                    :        0.000 s           0.001 s
------------------------------------------------------------

------------------------------------------------------------
          Begin self-consistency iteration #    5

  Date     :  20220120, Time     :  152136.031
------------------------------------------------------------
  Evaluating new KS density.
  Integration grid: deviation in total charge (<rho> - N_e) =   1.605682E-07
  | <rho_up-rho_dn> = N_up-N_dn =     -1.9262; <|rho_up-rho_dn|> =      1.9262
  Pulay mixing of updated and previous charge densities.

  Evaluating partitioned Hartree potential by multipole expansion.
  | Analytical far-field extrapolation by fixed multipoles:
  | Hartree multipole sum: apparent total charge =  -0.512782E-05
  Summing up the Hartree potential.
  Time summed over all CPUs for potential: real work        0.035 s, elapsed        0.044 s
  | RMS charge density error from multipole expansion :   0.619192E-03

  Integrating Hamiltonian matrix: batch-based integration.
  Time summed over all CPUs for integration: real work        0.070 s, elapsed        0.082 s

  Updating Kohn-Sham eigenvalues, eigenvectors, occupation numbers, and Fermi level.
  Solving generalized eigenproblem
  Solving real symmetric generalised eigenvalue problem by standard ScaLAPACK.
  Using Cholesky factor for transformation
  Using 1-stage real ELPA solver
  Solving real symmetric generalised eigenvalue problem by standard ScaLAPACK.
  Using Cholesky factor for transformation
  Using 1-stage real ELPA solver
  Determining occupation numbers for Kohn-Sham eigenstates.
  | Chemical potential (Fermi level) in eV                 : -.27664602E+01
  | Error in electron count due to remaining E_F inaccuracy: 0.00000000E+00
  | Maximum occupation number of highest empty state:  0.00E+00

  Current spin moment of the entire structure :
  | N = N_up - N_down :    0.00
  | S                 :    0.00
  | J                 :    1.00

  Highest occupied state (VBM) at     -5.11592571 eV
  | Occupation number:      1.00000000
  | Spin channel:        2

  Lowest unoccupied state (CBM) at     1.91770877 eV
  | Occupation number:      0.00000000
  | Spin channel:        1

  Overall HOMO-LUMO gap:      7.03363448 eV.

  Total energy components:
  | Sum of eigenvalues            :          -0.55038800 Ha         -14.97681937 eV
  | XC energy correction          :          -0.35712150 Ha          -9.71777045 eV
  | XC potential correction       :           0.45996980 Ha          12.51641518 eV
  | Free-atom electrostatic energy:          -0.42064408 Ha         -11.44630786 eV
  | Hartree energy correction     :          -0.01161950 Ha          -0.31618266 eV
  | van der Waals energy corr.    :           0.00000000 Ha           0.00000000 eV
  | Entropy correction            :           0.00000000 Ha           0.00000000 eV
  | ---------------------------
  | Total energy                  :          -0.87980327 Ha         -23.94066516 eV
  | Total energy, T -> 0          :          -0.87980327 Ha         -23.94066516 eV  <-- do not rely on this value for anything but (periodic) metals
  | Electronic free energy        :          -0.87980327 Ha         -23.94066516 eV

  Derived energy quantities:
  | Kinetic energy                :           0.85589734 Ha          23.29015169 eV
  | Electrostatic energy          :          -1.37857912 Ha         -37.51304640 eV
  | Energy correction for multipole
  | error in Hartree potential    :          -0.00016064 Ha          -0.00437134 eV
  | Sum of eigenvalues per atom                           :          -7.48840968 eV
  | Total energy (T->0) per atom                          :         -11.97033258 eV  <-- do not rely on this value for anything but (periodic) metals
  | Electronic free energy per atom                       :         -11.97033258 eV

  Self-consistency convergence accuracy:
  | Change of charge/spin density : 0.7812E-01 0.2824E+00
  | Change of sum of eigenvalues  : 0.8391E+00 eV
  | Change of total energy        : 0.1959E+00 eV

  End self-consistency iteration #     5       :  max(cpu_time)    wall_clock(cpu1)
  | Time for this iteration                    :        0.029 s           0.028 s
  | Charge density update                      :        0.007 s           0.006 s
  | Density mixing                             :        0.001 s           0.002 s
  | Hartree multipole update                   :        0.001 s           0.001 s
  | Hartree multipole summation                :        0.006 s           0.006 s
  | Integration                                :        0.010 s           0.010 s
  | Solution of K.-S. eqns.                    :        0.002 s           0.002 s
  | Total energy evaluation                    :        0.000 s           0.000 s
------------------------------------------------------------

------------------------------------------------------------
          Begin self-consistency iteration #    6

  Date     :  20220120, Time     :  152136.061
------------------------------------------------------------
  Evaluating new KS density.
  Integration grid: deviation in total charge (<rho> - N_e) =   1.653342E-07
  | <rho_up-rho_dn> = N_up-N_dn =     -2.0075; <|rho_up-rho_dn|> =      2.0075
  Pulay mixing of updated and previous charge densities.

  Evaluating partitioned Hartree potential by multipole expansion.
  | Analytical far-field extrapolation by fixed multipoles:
  | Hartree multipole sum: apparent total charge =  -0.511577E-05
  Summing up the Hartree potential.
  Time summed over all CPUs for potential: real work        0.035 s, elapsed        0.041 s
  | RMS charge density error from multipole expansion :   0.106594E-02

  Integrating Hamiltonian matrix: batch-based integration.
  Time summed over all CPUs for integration: real work        0.068 s, elapsed        0.080 s

  Updating Kohn-Sham eigenvalues, eigenvectors, occupation numbers, and Fermi level.
  Solving generalized eigenproblem
  Solving real symmetric generalised eigenvalue problem by standard ScaLAPACK.
  Using Cholesky factor for transformation
  Using 1-stage real ELPA solver
  Solving real symmetric generalised eigenvalue problem by standard ScaLAPACK.
  Using Cholesky factor for transformation
  Using 1-stage real ELPA solver
  Determining occupation numbers for Kohn-Sham eigenstates.
  | Chemical potential (Fermi level) in eV                 : -.38874265E+01
  | Error in electron count due to remaining E_F inaccuracy: 0.00000000E+00
  | Maximum occupation number of highest empty state:  0.00E+00

  Current spin moment of the entire structure :
  | N = N_up - N_down :    0.00
  | S                 :    0.00
  | J                 :    1.00

  Highest occupied state (VBM) at     -6.31765790 eV
  | Occupation number:      1.00000000
  | Spin channel:        2

  Lowest unoccupied state (CBM) at     0.82174089 eV
  | Occupation number:      0.00000000
  | Spin channel:        1

  Overall HOMO-LUMO gap:      7.13939879 eV.

  Total energy components:
  | Sum of eigenvalues            :          -0.63348845 Ha         -17.23809772 eV
  | XC energy correction          :          -0.48406647 Ha         -13.17211877 eV
  | XC potential correction       :           0.62343602 Ha          16.96455718 eV
  | Free-atom electrostatic energy:          -0.42064408 Ha         -11.44630786 eV
  | Hartree energy correction     :          -0.00615224 Ha          -0.16741099 eV
  | van der Waals energy corr.    :           0.00000000 Ha           0.00000000 eV
  | Entropy correction            :           0.00000000 Ha           0.00000000 eV
  | ---------------------------
  | Total energy                  :          -0.92091522 Ha         -25.05937816 eV
  | Total energy, T -> 0          :          -0.92091522 Ha         -25.05937816 eV  <-- do not rely on this value for anything but (periodic) metals
  | Electronic free energy        :          -0.92091522 Ha         -25.05937816 eV

  Derived energy quantities:
  | Kinetic energy                :           0.93272575 Ha          25.38075891 eV
  | Electrostatic energy          :          -1.36957450 Ha         -37.26801831 eV
  | Energy correction for multipole
  | error in Hartree potential    :          -0.00019603 Ha          -0.00533432 eV
  | Sum of eigenvalues per atom                           :          -8.61904886 eV
  | Total energy (T->0) per atom                          :         -12.52968908 eV  <-- do not rely on this value for anything but (periodic) metals
  | Electronic free energy per atom                       :         -12.52968908 eV

  Self-consistency convergence accuracy:
  | Change of charge/spin density : 0.1099E+00 0.2826E+00
  | Change of sum of eigenvalues  : -.2261E+01 eV
  | Change of total energy        : -.1119E+01 eV

  End self-consistency iteration #     6       :  max(cpu_time)    wall_clock(cpu1)
  | Time for this iteration                    :        0.030 s           0.030 s
  | Charge density update                      :        0.007 s           0.007 s
  | Density mixing                             :        0.002 s           0.002 s
  | Hartree multipole update                   :        0.002 s           0.002 s
  | Hartree multipole summation                :        0.005 s           0.005 s
  | Integration                                :        0.010 s           0.010 s
  | Solution of K.-S. eqns.                    :        0.001 s           0.001 s
  | Total energy evaluation                    :        0.000 s           0.000 s
------------------------------------------------------------

------------------------------------------------------------
          Begin self-consistency iteration #    7

  Date     :  20220120, Time     :  152136.092
------------------------------------------------------------
  Evaluating new KS density.
  Integration grid: deviation in total charge (<rho> - N_e) =   1.618396E-07
  | <rho_up-rho_dn> = N_up-N_dn =     -1.9865; <|rho_up-rho_dn|> =      1.9865
  Pulay mixing of updated and previous charge densities.

  Evaluating partitioned Hartree potential by multipole expansion.
  | Analytical far-field extrapolation by fixed multipoles:
  | Hartree multipole sum: apparent total charge =  -0.512790E-05
  Summing up the Hartree potential.
  Time summed over all CPUs for potential: real work        0.035 s, elapsed        0.043 s
  | RMS charge density error from multipole expansion :   0.120137E-02

  Integrating Hamiltonian matrix: batch-based integration.
  Time summed over all CPUs for integration: real work        0.069 s, elapsed        0.081 s

  Updating Kohn-Sham eigenvalues, eigenvectors, occupation numbers, and Fermi level.
  Solving generalized eigenproblem
  Solving real symmetric generalised eigenvalue problem by standard ScaLAPACK.
  Using Cholesky factor for transformation
  Using 1-stage real ELPA solver
  Solving real symmetric generalised eigenvalue problem by standard ScaLAPACK.
  Using Cholesky factor for transformation
  Using 1-stage real ELPA solver
  Determining occupation numbers for Kohn-Sham eigenstates.
  | Chemical potential (Fermi level) in eV                 : -.38922187E+01
  | Error in electron count due to remaining E_F inaccuracy: 0.00000000E+00
  | Maximum occupation number of highest empty state:  0.00E+00

  Current spin moment of the entire structure :
  | N = N_up - N_down :    0.00
  | S                 :    0.00
  | J                 :    1.00

  Highest occupied state (VBM) at     -6.43346198 eV
  | Occupation number:      1.00000000
  | Spin channel:        2

  Lowest unoccupied state (CBM) at     0.59838159 eV
  | Occupation number:      0.00000000
  | Spin channel:        1

  Overall HOMO-LUMO gap:      7.03184357 eV.

  Total energy components:
  | Sum of eigenvalues            :          -0.63643208 Ha         -17.31819791 eV
  | XC energy correction          :          -0.49469618 Ha         -13.46136807 eV
  | XC potential correction       :           0.63714824 Ha          17.33768579 eV
  | Free-atom electrostatic energy:          -0.42064408 Ha         -11.44630786 eV
  | Hartree energy correction     :          -0.00571687 Ha          -0.15556385 eV
  | van der Waals energy corr.    :           0.00000000 Ha           0.00000000 eV
  | Entropy correction            :           0.00000000 Ha           0.00000000 eV
  | ---------------------------
  | Total energy                  :          -0.92034097 Ha         -25.04375189 eV
  | Total energy, T -> 0          :          -0.92034097 Ha         -25.04375189 eV  <-- do not rely on this value for anything but (periodic) metals
  | Electronic free energy        :          -0.92034097 Ha         -25.04375189 eV

  Derived energy quantities:
  | Kinetic energy                :           0.94240392 Ha          25.64411535 eV
  | Electrostatic energy          :          -1.36804870 Ha         -37.22649917 eV
  | Energy correction for multipole
  | error in Hartree potential    :          -0.00020576 Ha          -0.00559895 eV
  | Sum of eigenvalues per atom                           :          -8.65909895 eV
  | Total energy (T->0) per atom                          :         -12.52187595 eV  <-- do not rely on this value for anything but (periodic) metals
  | Electronic free energy per atom                       :         -12.52187595 eV

  Self-consistency convergence accuracy:
  | Change of charge/spin density : 0.1017E+00 0.2808E+00
  | Change of sum of eigenvalues  : -.8010E-01 eV
  | Change of total energy        : 0.1563E-01 eV

  End self-consistency iteration #     7       :  max(cpu_time)    wall_clock(cpu1)
  | Time for this iteration                    :        0.031 s           0.030 s
  | Charge density update                      :        0.008 s           0.006 s
  | Density mixing                             :        0.003 s           0.003 s
  | Hartree multipole update                   :        0.001 s           0.002 s
  | Hartree multipole summation                :        0.006 s           0.005 s
  | Integration                                :        0.010 s           0.011 s
  | Solution of K.-S. eqns.                    :        0.002 s           0.002 s
  | Total energy evaluation                    :        0.000 s           0.001 s
------------------------------------------------------------

------------------------------------------------------------
          Begin self-consistency iteration #    8

  Date     :  20220120, Time     :  152136.124
------------------------------------------------------------
  Evaluating new KS density.
  Integration grid: deviation in total charge (<rho> - N_e) =   1.617022E-07
  | <rho_up-rho_dn> = N_up-N_dn =     -1.9893; <|rho_up-rho_dn|> =      1.9893
  Pulay mixing of updated and previous charge densities.

  Evaluating partitioned Hartree potential by multipole expansion.
  | Analytical far-field extrapolation by fixed multipoles:
  | Hartree multipole sum: apparent total charge =  -0.541003E-05
  Summing up the Hartree potential.
  Time summed over all CPUs for potential: real work        0.034 s, elapsed        0.041 s
  | RMS charge density error from multipole expansion :   0.985393E-03

  Integrating Hamiltonian matrix: batch-based integration.
  Time summed over all CPUs for integration: real work        0.062 s, elapsed        0.065 s

  Updating Kohn-Sham eigenvalues, eigenvectors, occupation numbers, and Fermi level.
  Solving generalized eigenproblem
  Solving real symmetric generalised eigenvalue problem by standard ScaLAPACK.
  Using Cholesky factor for transformation
  Using 1-stage real ELPA solver
  Solving real symmetric generalised eigenvalue problem by standard ScaLAPACK.
  Using Cholesky factor for transformation
  Using 1-stage real ELPA solver
  Determining occupation numbers for Kohn-Sham eigenstates.
  | Chemical potential (Fermi level) in eV                 : 0.45319623E+00
  | Error in electron count due to remaining E_F inaccuracy: 0.00000000E+00
  | Maximum occupation number of highest empty state:  0.00E+00

  Current spin moment of the entire structure :
  | N = N_up - N_down :    0.00
  | S                 :    0.00
  | J                 :    1.00

  Highest occupied state (VBM) at     -3.85949553 eV
  | Occupation number:      1.00000000
  | Spin channel:        2

  Lowest unoccupied state (CBM) at     2.57521134 eV
  | Occupation number:      0.00000000
  | Spin channel:        1

  Overall HOMO-LUMO gap:      6.43470686 eV.

  Total energy components:
  | Sum of eigenvalues            :          -0.37091009 Ha         -10.09297706 eV
  | XC energy correction          :          -0.30479979 Ha          -8.29402420 eV
  | XC potential correction       :           0.39745022 Ha          10.81517088 eV
  | Free-atom electrostatic energy:          -0.42064408 Ha         -11.44630786 eV
  | Hartree energy correction     :          -0.09941503 Ha          -2.70522063 eV
  | van der Waals energy corr.    :           0.00000000 Ha           0.00000000 eV
  | Entropy correction            :           0.00000000 Ha           0.00000000 eV
  | ---------------------------
  | Total energy                  :          -0.79831876 Ha         -21.72335887 eV
  | Total energy, T -> 0          :          -0.79831876 Ha         -21.72335887 eV  <-- do not rely on this value for anything but (periodic) metals
  | Electronic free energy        :          -0.79831876 Ha         -21.72335887 eV

  Derived energy quantities:
  | Kinetic energy                :           0.98798305 Ha          26.88438659 eV
  | Electrostatic energy          :          -1.48150203 Ha         -40.31372126 eV
  | Energy correction for multipole
  | error in Hartree potential    :          -0.00021407 Ha          -0.00582524 eV
  | Sum of eigenvalues per atom                           :          -5.04648853 eV
  | Total energy (T->0) per atom                          :         -10.86167943 eV  <-- do not rely on this value for anything but (periodic) metals
  | Electronic free energy per atom                       :         -10.86167943 eV

  Self-consistency convergence accuracy:
  | Change of charge/spin density : 0.1066E+00 0.2812E+00
  | Change of sum of eigenvalues  : 0.7225E+01 eV
  | Change of total energy        : 0.3320E+01 eV

  End self-consistency iteration #     8       :  max(cpu_time)    wall_clock(cpu1)
  | Time for this iteration                    :        0.028 s           0.028 s
  | Charge density update                      :        0.007 s           0.007 s
  | Density mixing                             :        0.003 s           0.003 s
  | Hartree multipole update                   :        0.001 s           0.002 s
  | Hartree multipole summation                :        0.005 s           0.005 s
  | Integration                                :        0.008 s           0.009 s
  | Solution of K.-S. eqns.                    :        0.001 s           0.001 s
  | Total energy evaluation                    :        0.000 s           0.000 s
------------------------------------------------------------

------------------------------------------------------------
          Begin self-consistency iteration #    9

  Date     :  20220120, Time     :  152136.154
------------------------------------------------------------
  Evaluating new KS density.
  Integration grid: deviation in total charge (<rho> - N_e) =   1.821552E-07
  | <rho_up-rho_dn> = N_up-N_dn =     -2.2936; <|rho_up-rho_dn|> =      2.2936
  Pulay mixing of updated and previous charge densities.

  Evaluating partitioned Hartree potential by multipole expansion.
  | Analytical far-field extrapolation by fixed multipoles:
  | Hartree multipole sum: apparent total charge =  -0.382981E-05
  Summing up the Hartree potential.
  Time summed over all CPUs for potential: real work        0.034 s, elapsed        0.035 s
  | RMS charge density error from multipole expansion :   0.731319E-02

  Integrating Hamiltonian matrix: batch-based integration.
  Time summed over all CPUs for integration: real work        0.071 s, elapsed        0.076 s

  Updating Kohn-Sham eigenvalues, eigenvectors, occupation numbers, and Fermi level.
  Solving generalized eigenproblem
  Solving real symmetric generalised eigenvalue problem by standard ScaLAPACK.
  Using Cholesky factor for transformation
  Using 1-stage real ELPA solver
  Solving real symmetric generalised eigenvalue problem by standard ScaLAPACK.
  Using Cholesky factor for transformation
  Using 1-stage real ELPA solver
  Determining occupation numbers for Kohn-Sham eigenstates.
  | Chemical potential (Fermi level) in eV                 : -.15460092E+02
  | Error in electron count due to remaining E_F inaccuracy: 0.00000000E+00
  | Maximum occupation number of highest empty state:  0.00E+00

  Current spin moment of the entire structure :
  | N = N_up - N_down :    0.00
  | S                 :    0.00
  | J                 :    1.00

  Highest occupied state (VBM) at    -16.90175227 eV
  | Occupation number:      1.00000000
  | Spin channel:        2

  Lowest unoccupied state (CBM) at    -3.39775330 eV
  | Occupation number:      0.00000000
  | Spin channel:        1

  Overall HOMO-LUMO gap:     13.50399897 eV.

  Total energy components:
  | Sum of eigenvalues            :          -1.28295400 Ha         -34.91095447 eV
  | XC energy correction          :          -0.88814603 Ha         -24.16768305 eV
  | XC potential correction       :           1.14085079 Ha          31.04412954 eV
  | Free-atom electrostatic energy:          -0.42064408 Ha         -11.44630786 eV
  | Hartree energy correction     :          -0.07761512 Ha          -2.11201495 eV
  | van der Waals energy corr.    :           0.00000000 Ha           0.00000000 eV
  | Entropy correction            :           0.00000000 Ha           0.00000000 eV
  | ---------------------------
  | Total energy                  :          -1.52850844 Ha         -41.59283079 eV
  | Total energy, T -> 0          :          -1.52850844 Ha         -41.59283079 eV  <-- do not rely on this value for anything but (periodic) metals
  | Electronic free energy        :          -1.52850844 Ha         -41.59283079 eV

  Derived energy quantities:
  | Kinetic energy                :          -0.41203871 Ha         -11.21214387 eV
  | Electrostatic energy          :          -0.22832370 Ha          -6.21300387 eV
  | Energy correction for multipole
  | error in Hartree potential    :           0.00011796 Ha           0.00320994 eV
  | Sum of eigenvalues per atom                           :         -17.45547723 eV
  | Total energy (T->0) per atom                          :         -20.79641539 eV  <-- do not rely on this value for anything but (periodic) metals
  | Electronic free energy per atom                       :         -20.79641539 eV

  Self-consistency convergence accuracy:
  | Change of charge/spin density : 0.5905E-01 0.3173E+00
  | Change of sum of eigenvalues  : -.2482E+02 eV
  | Change of total energy        : -.1987E+02 eV

  End self-consistency iteration #     9       :  max(cpu_time)    wall_clock(cpu1)
  | Time for this iteration                    :        0.028 s           0.028 s
  | Charge density update                      :        0.007 s           0.006 s
  | Density mixing                             :        0.002 s           0.002 s
  | Hartree multipole update                   :        0.001 s           0.001 s
  | Hartree multipole summation                :        0.005 s           0.006 s
  | Integration                                :        0.010 s           0.009 s
  | Solution of K.-S. eqns.                    :        0.002 s           0.002 s
  | Total energy evaluation                    :        0.000 s           0.000 s
------------------------------------------------------------

------------------------------------------------------------
          Begin self-consistency iteration #   10

  Date     :  20220120, Time     :  152136.183
------------------------------------------------------------
  Evaluating new KS density.
  Integration grid: deviation in total charge (<rho> - N_e) =   6.012560E-08
  | <rho_up-rho_dn> = N_up-N_dn =     -0.5594; <|rho_up-rho_dn|> =      1.0395
  Pulay mixing of updated and previous charge densities.

  Evaluating partitioned Hartree potential by multipole expansion.
  | Analytical far-field extrapolation by fixed multipoles:
  | Hartree multipole sum: apparent total charge =  -0.384470E-05
  Summing up the Hartree potential.
  Time summed over all CPUs for potential: real work        0.036 s, elapsed        0.041 s
  | RMS charge density error from multipole expansion :   0.882179E-02

  Integrating Hamiltonian matrix: batch-based integration.
  Time summed over all CPUs for integration: real work        0.074 s, elapsed        0.083 s

  Updating Kohn-Sham eigenvalues, eigenvectors, occupation numbers, and Fermi level.
  Solving generalized eigenproblem
  Solving real symmetric generalised eigenvalue problem by standard ScaLAPACK.
  Using Cholesky factor for transformation
  Using 1-stage real ELPA solver
  Solving real symmetric generalised eigenvalue problem by standard ScaLAPACK.
  Using Cholesky factor for transformation
  Using 1-stage real ELPA solver
  Determining occupation numbers for Kohn-Sham eigenstates.
  | Chemical potential (Fermi level) in eV                 : -.19003019E+02
  | Error in electron count due to remaining E_F inaccuracy: 0.00000000E+00
  | Maximum occupation number of highest empty state:  0.00E+00

  Current spin moment of the entire structure :
  | N = N_up - N_down :    0.00
  | S                 :    0.00
  | J                 :    1.00

  Highest occupied state (VBM) at    -20.91583888 eV
  | Occupation number:      1.00000000
  | Spin channel:        2

  Lowest unoccupied state (CBM) at    -4.80175745 eV
  | Occupation number:      0.00000000
  | Spin channel:        1

  Overall HOMO-LUMO gap:     16.11408143 eV.

  Total energy components:
  | Sum of eigenvalues            :          -1.56750538 Ha         -42.65399165 eV
  | XC energy correction          :          -0.97929069 Ha         -26.64785558 eV
  | XC potential correction       :           1.25930961 Ha          34.26755803 eV
  | Free-atom electrostatic energy:          -0.42064408 Ha         -11.44630786 eV
  | Hartree energy correction     :          -0.21232420 Ha          -5.77763537 eV
  | van der Waals energy corr.    :           0.00000000 Ha           0.00000000 eV
  | Entropy correction            :           0.00000000 Ha           0.00000000 eV
  | ---------------------------
  | Total energy                  :          -1.92045474 Ha         -52.25823244 eV
  | Total energy, T -> 0          :          -1.92045474 Ha         -52.25823244 eV  <-- do not rely on this value for anything but (periodic) metals
  | Electronic free energy        :          -1.92045474 Ha         -52.25823244 eV

  Derived energy quantities:
  | Kinetic energy                :          -1.36238822 Ha         -37.07246957 eV
  | Electrostatic energy          :           0.42122417 Ha          11.46209272 eV
  | Energy correction for multipole
  | error in Hartree potential    :           0.00042157 Ha           0.01147144 eV
  | Sum of eigenvalues per atom                           :         -21.32699583 eV
  | Total energy (T->0) per atom                          :         -26.12911622 eV  <-- do not rely on this value for anything but (periodic) metals
  | Electronic free energy per atom                       :         -26.12911622 eV

  Self-consistency convergence accuracy:
  | Change of charge/spin density : 0.8060E+00 0.2106E+00
  | Change of sum of eigenvalues  : -.7743E+01 eV
  | Change of total energy        : -.1067E+02 eV

  End self-consistency iteration #    10       :  max(cpu_time)    wall_clock(cpu1)
  | Time for this iteration                    :        0.030 s           0.030 s
  | Charge density update                      :        0.007 s           0.007 s
  | Density mixing                             :        0.002 s           0.002 s
  | Hartree multipole update                   :        0.002 s           0.002 s
  | Hartree multipole summation                :        0.006 s           0.005 s
  | Integration                                :        0.011 s           0.011 s
  | Solution of K.-S. eqns.                    :        0.001 s           0.001 s
  | Total energy evaluation                    :        0.000 s           0.000 s
------------------------------------------------------------

------------------------------------------------------------
          Begin self-consistency iteration #   11

  Date     :  20220120, Time     :  152136.214
------------------------------------------------------------
  Evaluating new KS density.
  Integration grid: deviation in total charge (<rho> - N_e) =   1.472726E-08
  | <rho_up-rho_dn> = N_up-N_dn =      0.0190; <|rho_up-rho_dn|> =      1.2022
  Pulay mixing of updated and previous charge densities.

  Evaluating partitioned Hartree potential by multipole expansion.
  | Analytical far-field extrapolation by fixed multipoles:
  | Hartree multipole sum: apparent total charge =  -0.430226E-05
  Summing up the Hartree potential.
  Time summed over all CPUs for potential: real work        0.037 s, elapsed        0.043 s
  | RMS charge density error from multipole expansion :   0.603951E-02

  Integrating Hamiltonian matrix: batch-based integration.
  Time summed over all CPUs for integration: real work        0.075 s, elapsed        0.080 s

  Updating Kohn-Sham eigenvalues, eigenvectors, occupation numbers, and Fermi level.
  Solving generalized eigenproblem
  Solving real symmetric generalised eigenvalue problem by standard ScaLAPACK.
  Using Cholesky factor for transformation
  Using 1-stage real ELPA solver
  Solving real symmetric generalised eigenvalue problem by standard ScaLAPACK.
  Using Cholesky factor for transformation
  Using 1-stage real ELPA solver
  Determining occupation numbers for Kohn-Sham eigenstates.
  | Chemical potential (Fermi level) in eV                 : -.17432897E+02
  | Error in electron count due to remaining E_F inaccuracy: 0.00000000E+00
  | Maximum occupation number of highest empty state:  0.00E+00

  Current spin moment of the entire structure :
  | N = N_up - N_down :    0.00
  | S                 :    0.00
  | J                 :    1.00

  Highest occupied state (VBM) at    -19.22034594 eV
  | Occupation number:      1.00000000
  | Spin channel:        2

  Lowest unoccupied state (CBM) at    -4.88171524 eV
  | Occupation number:      0.00000000
  | Spin channel:        1

  Overall HOMO-LUMO gap:     14.33863069 eV.

  Total energy components:
  | Sum of eigenvalues            :          -1.44052048 Ha         -39.19855656 eV
  | XC energy correction          :          -0.75733157 Ha         -20.60804057 eV
  | XC potential correction       :           0.97305380 Ha          26.47814117 eV
  | Free-atom electrostatic energy:          -0.42064408 Ha         -11.44630786 eV
  | Hartree energy correction     :           0.05990593 Ha           1.63012320 eV
  | van der Waals energy corr.    :           0.00000000 Ha           0.00000000 eV
  | Entropy correction            :           0.00000000 Ha           0.00000000 eV
  | ---------------------------
  | Total energy                  :          -1.58553640 Ha         -43.14464062 eV
  | Total energy, T -> 0          :          -1.58553640 Ha         -43.14464062 eV  <-- do not rely on this value for anything but (periodic) metals
  | Electronic free energy        :          -1.58553640 Ha         -43.14464062 eV

  Derived energy quantities:
  | Kinetic energy                :          -1.04918415 Ha         -28.54975329 eV
  | Electrostatic energy          :           0.22097932 Ha           6.01315324 eV
  | Energy correction for multipole
  | error in Hartree potential    :           0.00073138 Ha           0.01990177 eV
  | Sum of eigenvalues per atom                           :         -19.59927828 eV
  | Total energy (T->0) per atom                          :         -21.57232031 eV  <-- do not rely on this value for anything but (periodic) metals
  | Electronic free energy per atom                       :         -21.57232031 eV

[...]
  | Change of sum of eigenvalues  : 0.7846E-04 eV
  | Change of total energy        : -.1866E-08 eV

  End self-consistency iteration #    28       :  max(cpu_time)    wall_clock(cpu1)
  | Time for this iteration                    :        0.034 s           0.034 s
  | Charge density update                      :        0.007 s           0.006 s
  | Density mixing                             :        0.003 s           0.003 s
  | Hartree multipole update                   :        0.002 s           0.002 s
  | Hartree multipole summation                :        0.006 s           0.006 s
  | Integration                                :        0.013 s           0.013 s
  | Solution of K.-S. eqns.                    :        0.002 s           0.002 s
  | Total energy evaluation                    :        0.000 s           0.001 s
------------------------------------------------------------

------------------------------------------------------------
          Begin self-consistency iteration #   29

  Date     :  20220120, Time     :  152136.809
------------------------------------------------------------
  Evaluating new KS density.
  Integration grid: deviation in total charge (<rho> - N_e) =   8.588685E-13
  | <rho_up-rho_dn> = N_up-N_dn =      0.0000; <|rho_up-rho_dn|> =      0.0000
  Pulay mixing of updated and previous charge densities.

  Evaluating partitioned Hartree potential by multipole expansion.
  | Analytical far-field extrapolation by fixed multipoles:
  | Hartree multipole sum: apparent total charge =   0.115543E-06
  Summing up the Hartree potential.
  Time summed over all CPUs for potential: real work        0.037 s, elapsed        0.047 s
  | RMS charge density error from multipole expansion :   0.944598E-03

  Integrating Hamiltonian matrix: batch-based integration.
  Time summed over all CPUs for integration: real work        0.083 s, elapsed        0.101 s

  Updating Kohn-Sham eigenvalues, eigenvectors, occupation numbers, and Fermi level.
  Solving generalized eigenproblem
  Solving real symmetric generalised eigenvalue problem by standard ScaLAPACK.
  Using Cholesky factor for transformation
  Using 1-stage real ELPA solver
  Solving real symmetric generalised eigenvalue problem by standard ScaLAPACK.
  Using Cholesky factor for transformation
  Using 1-stage real ELPA solver
  Determining occupation numbers for Kohn-Sham eigenstates.
  | Chemical potential (Fermi level) in eV                 : -.82438915E+01
  | Error in electron count due to remaining E_F inaccuracy: 0.00000000E+00
  | Maximum occupation number of highest empty state:  0.00E+00

  Current spin moment of the entire structure :
  | N = N_up - N_down :    0.00
  | S                 :    0.00
  | J                 :    1.00

  Highest occupied state (VBM) at     -9.81126155 eV
  | Occupation number:      1.00000000
  | Spin channel:        1

  Lowest unoccupied state (CBM) at    -0.01978127 eV
  | Occupation number:      0.00000000
  | Spin channel:        2

  Overall HOMO-LUMO gap:      9.79148028 eV.

  Total energy components:
  | Sum of eigenvalues            :          -0.72111452 Ha         -19.62252448 eV
  | XC energy correction          :          -0.65323034 Ha         -17.77530197 eV
  | XC potential correction       :           0.83857134 Ha          22.81868723 eV
  | Free-atom electrostatic energy:          -0.42064408 Ha         -11.44630786 eV
  | Hartree energy correction     :          -0.20316428 Ha          -5.52838124 eV
  | van der Waals energy corr.    :           0.00000000 Ha           0.00000000 eV
  | Entropy correction            :           0.00000000 Ha           0.00000000 eV
  | ---------------------------
  | Total energy                  :          -1.15958188 Ha         -31.55382832 eV
  | Total energy, T -> 0          :          -1.15958188 Ha         -31.55382832 eV  <-- do not rely on this value for anything but (periodic) metals
  | Electronic free energy        :          -1.15958188 Ha         -31.55382832 eV

  Derived energy quantities:
  | Kinetic energy                :           1.03380990 Ha          28.13139867 eV
  | Electrostatic energy          :          -1.54016144 Ha         -41.90992503 eV
  | Energy correction for multipole
  | error in Hartree potential    :          -0.00009651 Ha          -0.00262623 eV
  | Sum of eigenvalues per atom                           :          -9.81126224 eV
  | Total energy (T->0) per atom                          :         -15.77691416 eV  <-- do not rely on this value for anything but (periodic) metals
  | Electronic free energy per atom                       :         -15.77691416 eV

  Self-consistency convergence accuracy:
  | Change of charge/spin density : 0.6645E-06 0.2475E-06
  | Change of sum of eigenvalues  : -.2239E-04 eV
  | Change of total energy        : -.4241E-09 eV

  End self-consistency iteration #    29       :  max(cpu_time)    wall_clock(cpu1)
  | Time for this iteration                    :        0.037 s           0.038 s
  | Charge density update                      :        0.009 s           0.009 s
  | Density mixing                             :        0.003 s           0.003 s
  | Hartree multipole update                   :        0.002 s           0.001 s
  | Hartree multipole summation                :        0.006 s           0.007 s
  | Integration                                :        0.013 s           0.013 s
  | Solution of K.-S. eqns.                    :        0.002 s           0.003 s
  | Total energy evaluation                    :        0.000 s           0.001 s
------------------------------------------------------------

------------------------------------------------------------
          Begin self-consistency iteration #   30

  Date     :  20220120, Time     :  152136.849
------------------------------------------------------------
  Evaluating new KS density.
  Integration grid: deviation in total charge (<rho> - N_e) =   4.281020E-13
  | <rho_up-rho_dn> = N_up-N_dn =      0.0000; <|rho_up-rho_dn|> =      0.0000
  Pulay mixing of updated and previous charge densities.

  Evaluating partitioned Hartree potential by multipole expansion.
  | Analytical far-field extrapolation by fixed multipoles:
  | Hartree multipole sum: apparent total charge =   0.115593E-06
  Summing up the Hartree potential.
  Time summed over all CPUs for potential: real work        0.037 s, elapsed        0.045 s
  | RMS charge density error from multipole expansion :   0.944599E-03

  Integrating Hamiltonian matrix: batch-based integration.
  Time summed over all CPUs for integration: real work        0.078 s, elapsed        0.087 s

  Updating Kohn-Sham eigenvalues, eigenvectors, occupation numbers, and Fermi level.
  Solving generalized eigenproblem
  Solving real symmetric generalised eigenvalue problem by standard ScaLAPACK.
  Using Cholesky factor for transformation
  Using 1-stage real ELPA solver
  Solving real symmetric generalised eigenvalue problem by standard ScaLAPACK.
  Using Cholesky factor for transformation
  Using 1-stage real ELPA solver
  Determining occupation numbers for Kohn-Sham eigenstates.
  | Chemical potential (Fermi level) in eV                 : -.82447271E+01
  | Error in electron count due to remaining E_F inaccuracy: 0.00000000E+00
  | Maximum occupation number of highest empty state:  0.00E+00

  Current spin moment of the entire structure :
  | N = N_up - N_down :    0.00
  | S                 :    0.00
  | J                 :    1.00

  Highest occupied state (VBM) at     -9.81125779 eV
  | Occupation number:      1.00000000
  | Spin channel:        1

  Lowest unoccupied state (CBM) at    -0.01977032 eV
  | Occupation number:      0.00000000
  | Spin channel:        2

  Overall HOMO-LUMO gap:      9.79148747 eV.

  Total energy components:
  | Sum of eigenvalues            :          -0.72111420 Ha         -19.62251569 eV
  | XC energy correction          :          -0.65323048 Ha         -17.77530587 eV
  | XC potential correction       :           0.83857153 Ha          22.81869243 eV
  | Free-atom electrostatic energy:          -0.42064408 Ha         -11.44630786 eV
  | Hartree energy correction     :          -0.20316465 Ha          -5.52839132 eV
  | van der Waals energy corr.    :           0.00000000 Ha           0.00000000 eV
  | Entropy correction            :           0.00000000 Ha           0.00000000 eV
  | ---------------------------
  | Total energy                  :          -1.15958188 Ha         -31.55382832 eV
  | Total energy, T -> 0          :          -1.15958188 Ha         -31.55382832 eV  <-- do not rely on this value for anything but (periodic) metals
  | Electronic free energy        :          -1.15958188 Ha         -31.55382832 eV

  Derived energy quantities:
  | Kinetic energy                :           1.03381003 Ha          28.13140212 eV
  | Electrostatic energy          :          -1.54016142 Ha         -41.90992456 eV
  | Energy correction for multipole
  | error in Hartree potential    :          -0.00009651 Ha          -0.00262621 eV
  | Sum of eigenvalues per atom                           :          -9.81125785 eV
  | Total energy (T->0) per atom                          :         -15.77691416 eV  <-- do not rely on this value for anything but (periodic) metals
  | Electronic free energy per atom                       :         -15.77691416 eV

  Self-consistency convergence accuracy:
  | Change of charge/spin density : 0.1873E-06 0.1372E-06
  | Change of sum of eigenvalues  : 0.8791E-05 eV
  | Change of total energy        : -.1085E-09 eV

  Writing Kohn-Sham eigenvalues.

  Spin-up eigenvalues:

  State    Occupation    Eigenvalue [Ha]    Eigenvalue [eV]
      1       1.00000          -0.360557           -9.81126
      2       0.00000          -0.000727           -0.01977
      3       0.00000           0.046674            1.27006
      4       0.00000           0.143569            3.90672
      5       0.00000           0.309509            8.42216
      6       0.00000           0.309509            8.42216
      7       0.00000           0.376400           10.24236
      8       0.00000           0.518024           14.09615
      9       0.00000           0.707599           19.25476
     10       0.00000           0.733208           19.95160
     11       0.00000           0.733208           19.95160

  Spin-down eigenvalues:

  State    Occupation    Eigenvalue [Ha]    Eigenvalue [eV]
      1       1.00000          -0.360557           -9.81126
      2       0.00000          -0.000727           -0.01977
      3       0.00000           0.046674            1.27006
      4       0.00000           0.143569            3.90672
      5       0.00000           0.309509            8.42216
      6       0.00000           0.309509            8.42216
      7       0.00000           0.376400           10.24236
      8       0.00000           0.518024           14.09615
      9       0.00000           0.707599           19.25476
     10       0.00000           0.733208           19.95160
     11       0.00000           0.733208           19.95160

  Current spin moment of the entire structure :
  | N = N_up - N_down :    0.00
  | S                 :    0.00
  | J                 :    1.00

  Highest occupied state (VBM) at     -9.81125779 eV
  | Occupation number:      1.00000000
  | Spin channel:        1

  Lowest unoccupied state (CBM) at    -0.01977032 eV
  | Occupation number:      0.00000000
  | Spin channel:        2

  Overall HOMO-LUMO gap:      9.79148747 eV.

  Self-consistency cycle converged.

  End self-consistency iteration #    30       :  max(cpu_time)    wall_clock(cpu1)
  | Time for this iteration                    :        0.034 s           0.034 s
  | Charge density update                      :        0.009 s           0.008 s
  | Density mixing                             :        0.003 s           0.003 s
  | Hartree multipole update                   :        0.002 s           0.002 s
  | Hartree multipole summation                :        0.006 s           0.006 s
  | Integration                                :        0.011 s           0.011 s
  | Solution of K.-S. eqns.                    :        0.001 s           0.001 s
  | Total energy evaluation                    :        0.000 s           0.000 s
------------------------------------------------------------
  Obtaining max. number of non-zero basis functions in each batch .
  Evaluating KS electron density on previously omitted grid points.
  Evaluating non-empirical van der Waals correction (Tkatchenko/Scheffler 2009).
  Performing Hirshfeld analysis of fragment charges and moments.
  ----------------------------------------------------------------------
  | Atom     1: H
  |   Hirshfeld charge        :     -0.00000052
  |   Free atom volume        :     10.31539447
  |   Hirshfeld volume        :      5.95840748
  |   Hirshfeld spin moment   :     -0.00000009
  |   Hirshfeld dipole vector :     -0.00000000       0.00000000      -0.08716767
  |   Hirshfeld dipole moment :      0.08716767
  |   Hirshfeld second moments:      0.10135294      -0.00000000      -0.00000000
  |                                 -0.00000000       0.10135294       0.00000000
  |                                 -0.00000000       0.00000000       0.10314264
  ----------------------------------------------------------------------
  | Atom     2: H
  |   Hirshfeld charge        :     -0.00000052
  |   Free atom volume        :     10.31539447
  |   Hirshfeld volume        :      5.95840748
  |   Hirshfeld spin moment   :     -0.00000009
  |   Hirshfeld dipole vector :     -0.00000000       0.00000000       0.08716767
  |   Hirshfeld dipole moment :      0.08716767
  |   Hirshfeld second moments:      0.10135294      -0.00000000      -0.00000000
  |                                 -0.00000000       0.10135294       0.00000000
  |                                 -0.00000000       0.00000000       0.10314264
  ----------------------------------------------------------------------


  Total energy components:
  | Sum of eigenvalues            :          -0.72111420 Ha         -19.62251569 eV
  | XC energy correction          :          -0.65323048 Ha         -17.77530587 eV
  | XC potential correction       :           0.83857153 Ha          22.81869243 eV
  | Free-atom electrostatic energy:          -0.42064408 Ha         -11.44630786 eV
  | Hartree energy correction     :          -0.20316465 Ha          -5.52839132 eV
  | van der Waals energy corr.    :          -0.00000020 Ha          -0.00000539 eV
  | Entropy correction            :           0.00000000 Ha           0.00000000 eV
  | ---------------------------
  | Total energy                  :          -1.15958208 Ha         -31.55383371 eV
  | Total energy, T -> 0          :          -1.15958208 Ha         -31.55383371 eV  <-- do not rely on this value for anything but (periodic) metals
  | Electronic free energy        :          -1.15958208 Ha         -31.55383371 eV

  Derived energy quantities:
  | Kinetic energy                :           1.03381003 Ha          28.13140212 eV
  | Electrostatic energy          :          -1.54016142 Ha         -41.90992456 eV
  | Energy correction for multipole
  | error in Hartree potential    :          -0.00009651 Ha          -0.00262621 eV
  | Sum of eigenvalues per atom                           :          -9.81125785 eV
  | Total energy (T->0) per atom                          :         -15.77691686 eV  <-- do not rely on this value for anything but (periodic) metals
  | Electronic free energy per atom                       :         -15.77691686 eV
  Timings for VdW correction (Tkatchenko-Scheffler 2009 or later):
  | CPU time:        0.004 s, Wall clock time:        0.003 s.

  Energy and forces in a compact form:
  | Total energy uncorrected      :         -0.315538337127938E+02 eV
  | Total energy corrected        :         -0.315538337127938E+02 eV  <-- do not rely on this value for anything but (periodic) metals
  | Electronic free energy        :         -0.315538337127938E+02 eV

  ------------------------------------ 
  Start decomposition of the XC Energy 
  ------------------------------------ 
  Hartree-Fock part   :          0.000000000 Ha              0.000000000 eV
  ------------------------------------ 
  X Energy            :         -0.611027322 Ha            -16.626899407 eV
  C Energy GGA        :         -0.042203162 Ha             -1.148406468 eV
  Total XC Energy     :         -0.653230484 Ha            -17.775305875 eV
  LDA X and C from self-consistent density 
  X Energy LDA        :         -0.533482188 Ha            -14.516788946 eV
  C Energy LDA        :         -0.092158722 Ha             -2.507766429 eV
  ------------------------------------ 
  End decomposition of the XC Energy 
  ------------------------------------ 

------------------------------------------------------------------------------
  Final output of selected total energy values:

  The following output summarizes some interesting total energy values
  at the end of a run (AFTER all relaxation, molecular dynamics, etc.).

  | Total energy of the DFT / Hartree-Fock s.c.f. calculation      :            -31.553833713 eV
  | Final zero-broadening corrected energy (caution - metals only) :            -31.553833713 eV
  | For reference only, the value of 1 Hartree used in FHI-aims is :             27.211384500 eV

  Before relying on these values, please be sure to understand exactly which
  total energy value is referred to by a given number. Different objects may
  all carry the same name 'total energy'. Definitions:

  Total energy of the DFT / Hartree-Fock s.c.f. calculation:
  | Note that this energy does not include ANY quantities calculated after the
  | s.c.f. cycle, in particular not ANY RPA, MP2, etc. many-body perturbation terms.

  Final zero-broadening corrected energy:
  | For metallic systems only, a broadening of the occupation numbers at the Fermi
  | level can be extrapolated back to zero broadening by an electron-gas inspired
  | formula. For all systems that are not real metals, this value can be
  | meaningless and should be avoided.

------------------------------------------------------------------------------

------------------------------------------------------------
          Leaving FHI-aims.
          Date     :  20220120, Time     :  152136.893

          Computational steps:
          | Number of self-consistency cycles          :           30

          Detailed time accounting                     :  max(cpu_time)    wall_clock(cpu1)
          | Total time                                 :        1.091 s           1.180 s
          | Preparation time                           :        0.079 s           0.083 s
          | Grid partitioning                          :        0.007 s           0.008 s
          | Preloading free-atom quantities on grid    :        0.004 s           0.003 s
          | Free-atom superposition energy             :        0.003 s           0.003 s
          | Total time for integrations                :        0.337 s           0.332 s
          | Total time for solution of K.-S. equations :        0.057 s           0.065 s
          | Total time for density update              :        0.233 s           0.212 s
          | Total time for mixing                      :        0.062 s           0.066 s
          | Total time for Hartree multipole update    :        0.044 s           0.043 s
          | Total time for Hartree multipole sum       :        0.161 s           0.165 s
          | Total time for total energy evaluation     :        0.006 s           0.020 s
          | Total time for scaled ZORA corrections     :        0.000 s           0.000 s
          | Total time for vdW correction              :        0.004 s           0.003 s

          Have a nice day.
------------------------------------------------------------
