  MPI-parallelism will be employed.
------------------------------------------------------------
          Invoking FHI-aims ...
          Version 052014
          Git rev. (modified): 096c982 Merge branch master of fhiaims:/pub/localo[...]
          Compiled on 2016/12/16 at 15:22:01 on host login02.hpc.iitd.ac.in.

          When using FHI-aims, please cite the following reference:

          Volker Blum, Ralf Gehrke, Felix Hanke, Paula Havu,
          Ville Havu, Xinguo Ren, Karsten Reuter, and Matthias Scheffler,
          'Ab Initio Molecular Simulations with Numeric Atom-Centered Orbitals: FHI-aims',
          Computer Physics Communications 180, 2175-2196 (2009)

          For any questions about FHI-aims, please visit the aimsclub website
          with its forums and wiki. Contributions to both the forums and the
          wiki are warmly encouraged - they are for you, and everyone is welcome there.

------------------------------------------------------------

  Date     :  20220124, Time     :  230131.084
  Time zero on CPU 1             :   0.121340000000000E-01  s.
  Internal wall clock time zero  :           412297291.084  s.

  Using        8 parallel tasks.
  Task        0 on host khas130 reporting.
  Task        1 on host khas130 reporting.
  Task        2 on host khas130 reporting.
  Task        3 on host khas130 reporting.
  Task        4 on host khas130 reporting.
  Task        5 on host khas130 reporting.
  Task        6 on host khas130 reporting.
  Task        7 on host khas130 reporting.

  Performing system and environment tests:
  | Environment variable OMP_NUM_THREADS correctly set to 1.
  | Stacksize not measured: no C compiler
  | Checking for scalapack...
  | Testing pdtran()...
  | All pdtran() tests passed.

  Obtaining array dimensions for all initial allocations:
  
  -----------------------------------------------------------------------
  Parsing control.in (first pass over file, find array dimensions only).
  The contents of control.in will be repeated verbatim below
  unless switched off by setting 'verbatim_writeout .false.' .
  in the first line of control.in .
  -----------------------------------------------------------------------
  
    xc               pbe
    spin             collinear
    default_initial_moment 0
    relativistic     atomic_zora scalar 1e-9
    occupation_type  gaussian 0.001
    charge        0
    vdw_correction_hirshfeld
    KS_method        scalapack_fast
    mixer            pulay
    charge_mix_param  0.4
    spin_mix_param    0.6
    sc_accuracy_rho  1E-4
    sc_accuracy_eev  1E-5
    sc_accuracy_etot 1E-5
    sc_iter_limit    100
    empty_states     5
  ################################
  # For relaxation:
    relax_geometry trm 1E-3
    sc_accuracy_forces 1E-4
  ################################
  ################################################################################
  #
  #  FHI-aims code project
  # Volker Blum, Fritz Haber Institute Berlin, 2009
  #
  #  Suggested "tight" defaults for Co atom (to be pasted into control.in file)
  #
  #  Revised June 14, 2011.
  #     p and d functions of tier 2 now enabled by default, as the atom may change
  #     its occupation. Similar to Ni.
  #
  ################################################################################
    species        Co
  #     global species definitions
      nucleus      27
      mass         58.933195
  #
      l_hartree    6
  #
      cut_pot      4.0  2.0  1.0
      basis_dep_cutoff    1e-4
  #
      radial_base        52 7.0
      radial_multiplier  2
      angular_grids       specified
        division   0.3189   50
        division   0.6267  110
        division   0.9473  194
        division   1.1520  302
        division   1.3966  434
  #      division   1.6293  590
  #      division   1.8317  770
  #      division   2.0231  974
  #      division   2.4367 1202
  #      outer_grid   974
        outer_grid  434
  ################################################################################
  #
  #  Definition of "minimal" basis
  #
  ################################################################################
  #     valence basis states
      valence      4  s   2.
      valence      3  p   6.
      valence      3  d   7.
  #     ion occupancy
      ion_occ      4  s   1.
      ion_occ      3  p   6.
      ion_occ      3  d   6.
  ################################################################################
  #
  #  Suggested additional basis functions. For production calculations,
  #  uncomment them one after another (the most important basis functions are
  #  listed first).
  #
  #  Constructed for dimers: 1.8, 2.0, 2.5, 3.5 Ang
  #
  ################################################################################
  #  "First tier" (improvements: -167.79 meV ...  -15.31 meV)
       hydro 3 p 5.8
       hydro 4 f 8.2
       hydro 3 d 5.4
       hydro 5 g 12
       ionic 4 s auto
  #  "Second tier" (improvements: -8.83 meV ... -0.89 meV)
       ionic 4 p auto
  #     hydro 6 h 16.4
       hydro 4 d 5.6
  #     hydro 4 f 17.2
  #     hydro 1 s 0.75
  #  "Third tier" (improvements: -1.03 meV ... -0.06 meV)
  #     hydro 4 d 7.8
  #     hydro 2 p 5.8
  #     hydro 4 f 8
  #     hydro 5 g 11.6
  #     hydro 4 s 4.3
  #     hydro 6 h 14.4
  #  "Fourth tier" (minor improvements)
  #     hydro 5 f 16
  #     hydro 5 d 8
  #     hydro 4 p 10
  #     hydro 5 s 7.4
  
  ################################################################################
  #
  #  FHI-aims code project
  # Volker Blum, Fritz Haber Institute Berlin, 2009
  #
  #  Suggested "tight" defaults for Zr atom (to be pasted into control.in file)
  #
  ################################################################################
    species          Zr
  #     global species definitions
      nucleus        40
      mass           91.224
  #
      l_hartree      6
  #
      cut_pot        4.0  2.0  1.0
      basis_dep_cutoff    1e-4
  #
      radial_base    58  7.0
      radial_multiplier  2
      angular_grids specified
        division   0.3653   50
        division   0.8035  110
        division   1.2273  194
        division   1.4586  302
        division   1.6764  434
  #      division   1.9671  590
  #      division   2.1961  770
  #      division   2.3240  974
  #      division   3.4772 1202
  #      outer_grid  974
        outer_grid  434
  ################################################################################
  #
  #  Definition of "minimal" basis
  #
  ################################################################################
  #     valence basis states
      valence      5  s   2.
      valence      4  p   6.
      valence      4  d   2.
  #     ion occupancy
      ion_occ      5  s   1.
      ion_occ      4  p   6.
      ion_occ      4  d   1.
  ################################################################################
  #
  #  Suggested additional basis functions. For production calculations,
  #  uncomment them one after another (the most important basis functions are
  #  listed first).
  #
  #  Constructed for dimers: 1.9, 2.25, 3.00, 4.00 Ang
  #
  ################################################################################
  #  "First tier" - improvements: -605.96 meV to -18.06 meV
       hydro 4 f 7.2
       ionic 4 d auto
       ionic 5 p auto
       hydro 5 g 10.4
       ionic 5 s auto
  #  "Second tier" - improvements: -32.47 meV to -1.41 meV
  #     hydro 4 f 10.4
  #     hydro 6 h 14.8
  #     hydro 4 d 6.2
  #     hydro 4 p 4.4
  #     hydro 4 f 20
  #     hydro 5 s 6
  #  "Third tier" - improvements: -1.99 meV and lower.
  #     hydro 4 f 5.8
  #     hydro 5 g 10.8
  #     hydro 2 p 1
  #     hydro 3 d 8
  #     hydro 6 h 14.4
  #     hydro 1 s 0.9
  #  Further functions (approx -0.40 meV and below possible)
  
  -----------------------------------------------------------------------
  Completed first pass over input file control.in .
  -----------------------------------------------------------------------
  
  
  -----------------------------------------------------------------------
  Parsing geometry.in (first pass over file, find array dimensions only).
  The contents of geometry.in will be repeated verbatim below
  unless switched off by setting 'verbatim_writeout .false.' .
  in the first line of geometry.in .
  -----------------------------------------------------------------------
  
  atom	0	0	0	Co
  atom	0	0	2	Co
  atom	0	2	2	Co
  atom	1.5	1.5	1.5	Zr
  
  -----------------------------------------------------------------------
  Completed first pass over input file geometry.in .
  -----------------------------------------------------------------------
  

  Basic array size parameters:
  | Number of species                 :        2
  | Number of atoms                   :        4
  | Max. basis fn. angular momentum   :        4
  | Max. atomic/ionic basis occupied n:        5
  | Max. number of basis fn. types    :        3
  | Max. radial fns per species/type  :       10
  | Max. logarithmic grid size        :     1432
  | Max. radial integration grid size :      117
  | Max. angular integration grid size:      434
  | Max. angular grid division number :        8
  | Radial grid for Hartree potential :     1432
  | Number of spin channels           :        2

------------------------------------------------------------
          Reading file control.in.
------------------------------------------------------------
  XC: Using PBE gradient-corrected functionals.
  Spin treatment: Spin density functional theory - collinear spins.
  Initial spin moment per atom:   0.0000
  Scalar relativistic treatment of kinetic energy: on-site free-atom approximation to ZORA.
  Occupation type: Gaussian broadening, width =   0.100000E-02 eV.
  Charge =   0.000000E+00: Neutral system requested explicitly.
  Using non-empirical van der Waals correction (Hirshfeld partitioning):
  Kohn-Sham eigenvalues and eigenfunctions calculated by the ELPA eigensolver library.
  Using pulay charge density mixing.
  Charge density mixing - mixing parameter:     0.4000
  Spin density mixing - mixing parameter:     0.6000
  Convergence accuracy of self-consistent charge density: 0.1000E-03
  Convergence accuracy of sum of eigenvalues: 0.1000E-04
  Convergence accuracy of total energy: 0.1000E-04
  Maximum number of s.-c. iterations  :   100
  Number of empty states per atom:        5
  Geometry relaxation: Modified BFGS - TRM (trust radius method, i.e., trusted quadratic extrapolation).
  Convergence accuracy for geometry relaxation: Maximum force <   0.100000E-02 eV/A.
  Convergence accuracy of forces: 0.1000E-03
 
  Reading configuration options for species Co                  .
  | Found nuclear charge :  27.0000
  | Found atomic mass :    58.9331950000000      amu
  | Found l_max for Hartree potential  :   6
  | Found cutoff potl. onset [A], width [A], scale factor :    4.00000    2.00000    1.00000
  | Threshold for basis-dependent cutoff potential is   0.100000E-03
  | Found data for basic radial integration grid :    52 points, outermost radius =    7.000 A
  | Found multiplier for basic radial grid :   2
  | Found angular grid specification: user-specified.
  | Specified grid contains     6 separate shells.
  | Check grid settings after all constraints further below.
  | Found free-atom valence shell :  4 s   2.000
  | Found free-atom valence shell :  3 p   6.000
  | Found free-atom valence shell :  3 d   7.000
  | Found free-ion valence shell :  4 s   1.000
  | Found free-ion valence shell :  3 p   6.000
  | Found free-ion valence shell :  3 d   6.000
  | Found hydrogenic basis function :  3 p   5.800
  | Found hydrogenic basis function :  4 f   8.200
  | Found hydrogenic basis function :  3 d   5.400
  | Found hydrogenic basis function :  5 g  12.000
  | Found ionic basis function :  4 s , default cutoff radius.
  | Found ionic basis function :  4 p , default cutoff radius.
  | Found hydrogenic basis function :  4 d   5.600
  Species Co                  : Missing cutoff potential type.
  Defaulting to exp(1/x)/(1-x)^2 type cutoff potential.
  Species Co: No 'logarithmic' tag. Using default grid for free atom:
  | Default logarithmic grid data [bohr] : 0.1000E-03 0.1000E+03 0.1012E+01
  | Will include ionic basis functions of  2.0-fold positive Co                   ion.
  Species Co: On-site basis accuracy parameter (for Gram-Schmidt orthonormalisation) not specified.
  Using default value basis_acc =  0.1000000E-03.
  Species Co                  : Using default innermost maximum threshold i_radial=  2 for radial functions.
  Species Co                  : Default cutoff onset for free atom density etc. : 0.40000000E+01 AA.
  Species Co                  : Basic radial grid will be enhanced according to radial_multiplier =   2, to contain   105 grid points.
 
  Reading configuration options for species Zr                  .
  | Found nuclear charge :  40.0000
  | Found atomic mass :    91.2240000000000      amu
  | Found l_max for Hartree potential  :   6
  | Found cutoff potl. onset [A], width [A], scale factor :    4.00000    2.00000    1.00000
  | Threshold for basis-dependent cutoff potential is   0.100000E-03
  | Found data for basic radial integration grid :    58 points, outermost radius =    7.000 A
  | Found multiplier for basic radial grid :   2
  | Found angular grid specification: user-specified.
  | Specified grid contains     6 separate shells.
  | Check grid settings after all constraints further below.
  | Found free-atom valence shell :  5 s   2.000
  | Found free-atom valence shell :  4 p   6.000
  | Found free-atom valence shell :  4 d   2.000
  | Found free-ion valence shell :  5 s   1.000
  | Found free-ion valence shell :  4 p   6.000
  | Found free-ion valence shell :  4 d   1.000
  | Found hydrogenic basis function :  4 f   7.200
  | Found ionic basis function :  4 d , default cutoff radius.
  | Found ionic basis function :  5 p , default cutoff radius.
  | Found hydrogenic basis function :  5 g  10.400
  | Found ionic basis function :  5 s , default cutoff radius.
  Species Zr                  : Missing cutoff potential type.
  Defaulting to exp(1/x)/(1-x)^2 type cutoff potential.
  Species Zr: No 'logarithmic' tag. Using default grid for free atom:
  | Default logarithmic grid data [bohr] : 0.1000E-03 0.1000E+03 0.1012E+01
  | Will include ionic basis functions of  2.0-fold positive Zr                   ion.
  Species Zr: On-site basis accuracy parameter (for Gram-Schmidt orthonormalisation) not specified.
  Using default value basis_acc =  0.1000000E-03.
  Species Zr                  : Using default innermost maximum threshold i_radial=  2 for radial functions.
  Species Zr                  : Default cutoff onset for free atom density etc. : 0.40000000E+01 AA.
  Species Zr                  : Basic radial grid will be enhanced according to radial_multiplier =   2, to contain   117 grid points.
 
  Finished reading input file 'control.in'. Consistency checks are next.
 
  Target number of points in a grid batch is not set. Defaulting to  100
  Method for grid partitioning is not set. Defaulting to parallel hash+maxmin partitioning.
  Batch size limit is not set. Defaulting to    200
  By default, will store active basis functions for each batch.
  If in need of memory, prune_basis_once .false. can be used to disable this option.
  communication_type for Hartree potential was not specified.
  Defaulting to calc_hartree .
  Pulay mixer: Number of relevant iterations not set.
  Defaulting to    8 iterations.
  Pulay mixer: Number of initial linear mixing iterations not set.
  Defaulting to    0 iterations.
  Work space size for distributed Hartree potential not set.
  Defaulting to   0.200000E+03 MB.
  Algorithm-dependent basis array size parameters:
  | n_max_pulay                         :        8
  No maximum number of relaxation steps, defaulting to     1000
  Default initial Hessian is Lindh matrix (thres = 15.00) plus  0.200000E+01 eV/A^2 times unity.
  No maximum energy tolerance for TRM/BFGS moves, defaulting to   0.200000E-03
  No harmonic length scale. Defaulting to   0.250000E-01 A.
  No trust radius initializer. Defaulting to   0.200000E+00 A.
  Handling of forces: Unphysical translation and rotation will be removed from forces.
  No accuracy limit for integral partition fn. given. Defaulting to 0.1000E-14.
  No threshold value for u(r) in integrations given. Defaulting to 0.1000E-05.
  No accuracy for occupation numbers given. Defaulting to 0.1000E-07.
  No threshold value for occupation numbers given. Defaulting to 0.0000E+00.
  No accuracy for fermi level given. Defaulting to 0.1000E-19.
  Maximum # of iterations to find E_F not set. Defaulting to  200.
  Will not use alltoall communication since running on < 1024 CPUs.
  Threshold for basis singularities not set.
  Default threshold for basis singularities: 0.1000E-04
  partition_type (choice of integration weights) for integrals was not specified.
  | Using a version of the partition function of Stratmann and coworkers ('stratmann_smoother').
  | At each grid point, the set of atoms used to build the partition table is smoothly restricted to
  | only those atoms whose free-atom density would be non-zero at that grid point.
  Partitioning for Hartree potential was not defined. Using partition_type for integrals.
  | Adjusted default value of keyword multip_moments_threshold to:       0.10000000E-11
  | This value may affect high angular momentum components of the Hartree potential in periodic systems.
  No q(lm)/r^(l+1) cutoff set for long-range Hartree potential.
  | Using default value of  0.100000E-09 .
  | Verify using the multipole_threshold keyword.
  Defaulting to new monopole extrapolation.
  Density update method: automatic selection selected.
  Geometry relaxation: A file "geometry.in.next_step" is written out by default after each step.
  | This file contains the geometry of the current relaxation step as well as
  | the current Hessian matrix needed to restart the relaxation algorithm.
  | If you do not want part or all of this information, use the keywords
  | "write_restart_geometry" or "hessian_to_restart_geometry" to switch the output off.
------------------------------------------------------------


------------------------------------------------------------
          Reading geometry description geometry.in.
------------------------------------------------------------
  Input structure read successfully.
  The structure contains        4 atoms,  and a total of        121.000 electrons.

  Input geometry:
  | No unit cell requested.
  | Atomic structure:
  |       Atom                x [A]            y [A]            z [A]
  |    1: Species Co             0.000000         0.000000         0.000000
  |    2: Species Co             0.000000         0.000000         2.000000
  |    3: Species Co             0.000000         2.000000         2.000000
  |    4: Species Zr             1.500000         1.500000         1.500000
  |

  | The smallest distance between any two atoms is         1.65831240 AA.
  |
  | The first atom of this pair is atom number                      3 .
  | The second atom of this pair is atom number                     4 .

  Initial moments and charges:
  |  Atom   Moment         Charge        Species
  |     1   0.000000E+00   0.000000E+00   Co
  |     2   0.000000E+00   0.000000E+00   Co
  |     3   0.000000E+00   0.000000E+00   Co
  |     4   0.000000E+00   0.000000E+00   Zr

  Structure-dependent array size parameters: 
  | Number of distinct atom types in initial rho :        2
  | Maximum number of distinct radial functions  :       29
  | Maximum number of basis functions            :      193
  | Number of Kohn-Sham states (occupied + empty):       71
------------------------------------------------------------

------------------------------------------------------------
          Preparing all fixed parts of the calculation.
------------------------------------------------------------
  Determining machine precision:
    2.225073858507201E-308
  Setting up grids for atomic and cluster calculations.

  Creating wave function, potential, and density for free atoms.

  Species: Co

  List of occupied orbitals and eigenvalues:
    n    l              occ      energy [Ha]    energy [eV]
    1    0           2.0000      -281.566092     -7661.8032
    2    0           2.0000       -33.078778      -900.1193
    3    0           2.0000        -3.761161      -102.3464
    4    0           2.0000        -0.199094        -5.4176
    2    1           6.0000       -28.325360      -770.7723
    3    1           6.0000        -2.409500       -65.5658
    3    2           7.0000        -0.299474        -8.1491


  Species: Zr

  List of occupied orbitals and eigenvalues:
    n    l              occ      energy [Ha]    energy [eV]
    1    0           2.0000      -668.722933    -18196.8768
    2    0           2.0000       -91.076987     -2478.3309
    3    0           2.0000       -14.873383      -404.7254
    4    0           2.0000        -1.994212       -54.2653
    5    0           2.0000        -0.156460        -4.2575
    2    1           6.0000       -81.194469     -2209.4139
    3    1           6.0000       -11.667913      -317.5001
    4    1           6.0000        -1.184217       -32.2242
    3    2          10.0000        -6.414313      -174.5423
    4    2           2.0000        -0.125045        -3.4027

  Spin-polarized or charged system:
  Charge density initialized according to selected moments and charges.

  Creating spin-polarized density from free atoms.

  Species: Co
  Charge:   0.000000
  Moment:   0.000000

  List of occupied orbitals and eigenvalues:
    n    l      energy [Ha]    energy [eV]    occupation
  Spin-up
    1    0      -281.566092     -7661.8032     1.00000000
    2    0       -33.078778      -900.1193     1.00000000
    3    0        -3.761161      -102.3464     1.00000000
    4    0        -0.199094        -5.4176     1.00000000
    2    1       -28.325360      -770.7723     3.00000000
    3    1        -2.409500       -65.5658     3.00000000
    3    2        -0.299474        -8.1491     3.50000000
  Spin-down
    1    0      -281.566092     -7661.8032     1.00000000
    2    0       -33.078778      -900.1193     1.00000000
    3    0        -3.761161      -102.3464     1.00000000
    4    0        -0.199094        -5.4176     1.00000000
    2    1       -28.325360      -770.7723     3.00000000
    3    1        -2.409500       -65.5658     3.00000000
    3    2        -0.299474        -8.1491     3.50000000


  Species: Zr
  Charge:   0.000000
  Moment:   0.000000

  List of occupied orbitals and eigenvalues:
    n    l      energy [Ha]    energy [eV]    occupation
  Spin-up
    1    0      -668.722933    -18196.8768     1.00000000
    2    0       -91.076987     -2478.3309     1.00000000
    3    0       -14.873383      -404.7254     1.00000000
    4    0        -1.994212       -54.2653     1.00000000
    5    0        -0.156460        -4.2575     1.00000000
    2    1       -81.194469     -2209.4139     3.00000000
    3    1       -11.667913      -317.5001     3.00000000
    4    1        -1.184217       -32.2242     3.00000000
    3    2        -6.414313      -174.5423     5.00000000
    4    2        -0.125045        -3.4027     1.00000000
  Spin-down
    1    0      -668.722933    -18196.8768     1.00000000
    2    0       -91.076987     -2478.3309     1.00000000
    3    0       -14.873383      -404.7254     1.00000000
    4    0        -1.994212       -54.2653     1.00000000
    5    0        -0.156460        -4.2575     1.00000000
    2    1       -81.194469     -2209.4139     3.00000000
    3    1       -11.667913      -317.5001     3.00000000
    4    1        -1.184217       -32.2242     3.00000000
    3    2        -6.414313      -174.5423     5.00000000
    4    2        -0.125045        -3.4027     1.00000000

  Creating fixed part of basis set: Ionic, confined, hydrogenic.
 
  Co                   ion:

  List of free ionic orbitals and eigenvalues:
    n    l      energy [Ha]    energy [eV]
    1    0      -282.564401     -7688.9686
    2    0       -34.086672      -927.5455
    3    0        -4.733406      -128.8025
    4    0        -0.850278       -23.1373
    2    1       -29.331608      -798.1537
    3    1        -3.374486       -91.8244
    3    2        -1.228934       -33.4410


  List of ionic basis orbitals and eigenvalues:
    n    l      energy [Ha]    energy [eV]    outer radius [A]
    4    0        -0.850268       -23.1370       5.017573
    4    1        -0.602640       -16.3987       5.399446

 
  Co                   hydrogenic:
 
  List of hydrogenic basis orbitals: 
    n    l      effective z      eigenvalue [eV]  inner max. [A]     outer max. [A]     outer radius [A]   
    3    1         5.800000       -50.8549           0.273460           1.088525           4.494802
    4    3         8.200000       -57.1778           1.036577           1.036577           4.550088
    3    2         5.400000       -44.0822           0.884263           0.884263           4.494802
    5    4        12.000000       -78.3687           1.101914           1.101914           4.440187
    4    2         5.600000       -26.6539           0.643489           2.005859           5.465859
 
 
  Zr                   ion:

  List of free ionic orbitals and eigenvalues:
    n    l      energy [Ha]    energy [eV]
    1    0      -669.421026    -18215.8729
    2    0       -91.769634     -2497.1788
    3    0       -15.560469      -423.4219
    4    0        -2.663352       -72.4735
    5    0        -0.640863       -17.4388
    2    1       -81.886574     -2228.2470
    3    1       -12.354892      -336.1937
    4    1        -1.844122       -50.1811
    3    2        -7.101714      -193.2475
    4    2        -0.726930       -19.7808


  List of ionic basis orbitals and eigenvalues:
    n    l      energy [Ha]    energy [eV]    outer radius [A]
    4    2        -0.726920       -19.7805       5.008334
    5    1        -0.469561       -12.7774       5.455794
    5    0        -0.640774       -17.4363       5.389503

 
  Zr                   hydrogenic:
 
  List of hydrogenic basis orbitals: 
    n    l      effective z      eigenvalue [eV]  inner max. [A]     outer max. [A]     outer radius [A]   
    4    3         7.200000       -44.0822           1.169212           1.169212           5.008334
    5    4        10.400000       -58.8635           1.273673           1.273673           4.887365
 

  Adding cutoff potential to free-atom effective potential.
  Creating atomic-like basis functions for current effective potential.

  Species Co                  :

  List of atomic basis orbitals and eigenvalues:
    n    l      energy [Ha]    energy [eV]    outer radius [A]
    1    0      -281.566092     -7661.8032       0.394613
    2    0       -33.078778      -900.1193       1.157136
    3    0        -3.761161      -102.3464       3.311155
    4    0        -0.199094        -5.4176       5.399446
    2    1       -28.325360      -770.7723       1.215127
    3    1        -2.409500       -65.5658       3.977573
    3    2        -0.299474        -8.1491       5.269030


  Species Zr                  :

  List of atomic basis orbitals and eigenvalues:
    n    l      energy [Ha]    energy [eV]    outer radius [A]
    1    0      -668.722933    -18196.8768       0.259930
    2    0       -91.076987     -2478.3309       0.725827
    3    0       -14.873383      -404.7254       1.771771
    4    0        -1.994212       -54.2653       4.541709
    5    0        -0.156460        -4.2575       5.455794
    2    1       -81.194469     -2209.4139       0.743792
    3    1       -11.667913      -317.5001       1.930067
    4    1        -1.184217       -32.2242       5.008334
    3    2        -6.414313      -174.5423       2.434714
    4    2        -0.125045        -3.4027       5.389503

  Assembling full basis from fixed parts.
  | Species Co :   atomic orbital   1 s accepted.
  | Species Co :   atomic orbital   2 s accepted.
  | Species Co :   atomic orbital   3 s accepted.
  | Species Co :    ionic orbital   4 s accepted.
  | Species Co :   atomic orbital   4 s accepted.
  | Species Co :   atomic orbital   2 p accepted.
  | Species Co :   atomic orbital   3 p accepted.
  | Species Co :    hydro orbital   3 p accepted.
  | Species Co :    ionic orbital   4 p accepted.
  | Species Co :    hydro orbital   3 d accepted.
  | Species Co :   atomic orbital   3 d accepted.
  | Species Co :    hydro orbital   4 d accepted.
  | Species Co :    hydro orbital   4 f accepted.
  | Species Co :    hydro orbital   5 g accepted.
  | Species Zr :   atomic orbital   1 s accepted.
  | Species Zr :   atomic orbital   2 s accepted.
  | Species Zr :   atomic orbital   3 s accepted.
  | Species Zr :   atomic orbital   4 s accepted.
  | Species Zr :    ionic orbital   5 s accepted.
  | Species Zr :   atomic orbital   5 s accepted.
  | Species Zr :   atomic orbital   2 p accepted.
  | Species Zr :   atomic orbital   3 p accepted.
  | Species Zr :   atomic orbital   4 p accepted.
  | Species Zr :    ionic orbital   5 p accepted.
  | Species Zr :   atomic orbital   3 d accepted.
  | Species Zr :    ionic orbital   4 d accepted.
  | Species Zr :   atomic orbital   4 d accepted.
  | Species Zr :    hydro orbital   4 f accepted.
  | Species Zr :    hydro orbital   5 g accepted.
 
  Basis size parameters after reduction:
  | Total number of radial functions:       29
  | Total number of basis functions :      193
 
  Testing on-site integration grid accuracy.
  |  Species  Function  <phi|h_atom|phi> (log., in eV)  <phi|h_atom|phi> (rad., in eV)
           1        1              -7661.8031969867              -7661.8029260849
           1        2               -900.1193394436               -900.1193358362
           1        3               -102.3464062200               -102.3464054597
           1        4                 -4.5136676415                 -4.5136684488
           1        5                  5.2956911928                  5.2959272761
           1        6               -770.7722641523               -770.7722638539
           1        7                -65.5658195253                -65.5658190573
           1        8                  4.1689597085                  4.1689599828
           1        9                 11.7969993559                 11.7970095039
           1       10                  6.0390118236                  6.0390118634
           1       11                 12.9242487525                 12.9242490163
           1       12                 18.9576570498                 18.9576800677
           1       13                 32.4985635122                 32.4985635847
           1       14                 58.0457734223                 58.0457733072
           2       15             -18196.8768435665             -18196.8755705220
           2       16              -2478.3309144498              -2478.3308916069
           2       17               -404.7253557491               -404.7253534742
           2       18                -54.2652640714                -54.2652635286
           2       19                 -3.7119764275                 -3.7119846577
           2       20                  4.5875772639                  4.5868905659
           2       21              -2209.4139097225              -2209.4139071812
           2       22               -317.5000788444               -317.5000777556
           2       23                -32.2241784576                -32.2241781542
           2       24                 -0.3319152745                 -0.3319660629
           2       25               -174.5423275335               -174.5423272575
           2       26                 -3.0504029429                 -3.0504025329
           2       27                  4.9970437712                  4.9966978803
           2       28                 16.8632595236                 16.8632598612
           2       29                 37.0867992037                 37.0867988501

  Preparing densities etc. for the partition functions (integrals / Hartree potential).

  Preparations completed.
  max(cpu_time)          :      0.889 s.
  Wall clock time (cpu1) :      0.885 s.
------------------------------------------------------------

------------------------------------------------------------
          Begin self-consistency loop: Initialization.

          Date     :  20220124, Time     :  230132.025
------------------------------------------------------------

  Initializing index lists of integration centers etc. from given atomic structure:
  | Number of centers in hartree potential         :         4
  | Number of centers in hartree multipole         :         4
  | Number of centers in electron density summation:         4
  | Number of centers in basis integrals           :         4
  | Number of centers in integrals                 :         4
  Initializing relaxation algorithms.
  Using modified Scalapack Eigenvalue solver (ELPA)
  * Using 8 tasks for Scalapack Eigenvalue solver.
  Detailed listing of tasks and assigned k-points:
  (for non-periodic systems, the "k-point" denotes an internal label only)
   Task     0 k-point     1 on khas130
   Task     1 k-point     1 on khas130
   Task     2 k-point     1 on khas130
   Task     3 k-point     1 on khas130
   Task     4 k-point     1 on khas130
   Task     5 k-point     1 on khas130
   Task     6 k-point     1 on khas130
   Task     7 k-point     1 on khas130
  Tasks:     8 split into      4 X      2 BLACS grid
  Calculating blocksize based on n_basis =          193 max_nprow =            4 max_npcol =            2
  Scalapack blocksize set to:           16
  Required Scalapack workspace - INTEGER:            1 REAL:             1
  Partitioning the integration grid into batches with parallel hashing+maxmin method.
  | Number of batches:     1249
  | Maximal batch size:     199
  | Minimal batch size:      51
  | Average batch size:      73.422
  | Standard deviation of batch sizes:      20.645

  Integration load balanced across     8 MPI tasks.
  Work distribution over tasks is as follows:
  Task     0 has      11496 integration points.
  Task     1 has      11438 integration points.
  Task     2 has      11439 integration points.
  Task     3 has      11461 integration points.
  Task     4 has      11462 integration points.
  Task     5 has      11488 integration points.
  Task     6 has      11488 integration points.
  Task     7 has      11432 integration points.
  Initializing partition tables, free-atom densities, potentials, etc. across the integration grid (initialize_grid_storage).
  | initialize_grid_storage: Actual outermost partition radius vs. multipole_radius_free
  | (-- VB: in principle, multipole_radius_free should be larger, hence this output)
  | Species        1: outer_partition_radius =              6.000000000000000 AA, multipole_radius_free =              6.027432917222699 AA.
  | Species        2: outer_partition_radius =              6.000000000000000 AA, multipole_radius_free =              6.016333975203386 AA.
  | Original list of interatomic distances with           4 x          4 entries is created.
  | Net number of integration points:    91704
  | of which are non-zero points    :    83537
  Obtaining max. number of non-zero basis functions in each batch (get_n_compute_maxes).
  | Maximal number of non-zero basis functions:      185 in task     0
  | Maximal number of non-zero basis functions:      185 in task     1
  | Maximal number of non-zero basis functions:      185 in task     2
  | Maximal number of non-zero basis functions:      184 in task     3
  | Maximal number of non-zero basis functions:      185 in task     4
  | Maximal number of non-zero basis functions:      185 in task     5
  | Maximal number of non-zero basis functions:      183 in task     6
  | Maximal number of non-zero basis functions:      182 in task     7
  Selecting the method for density update.
  Loop over occupied states selected for charge density update.
  Integrating Hamiltonian matrix: batch-based integration.
  Time summed over all CPUs for integration: real work        1.047 s, elapsed        1.072 s
  Integrating overlap matrix.
  Time summed over all CPUs for integration: real work        0.330 s, elapsed        0.338 s
  Deallocating overlap matrix.

  Updating Kohn-Sham eigenvalues, eigenvectors, occupation numbers, and Fermi level.
  Solving generalized eigenproblem
  Solving real symmetric generalised eigenvalue problem by standard ScaLAPACK.
  Transforming overlap matrix with ScaLAPACK and checking for singularities.
  : Overlap matrix is nonsingular, using Cholesky decomposition
  | Lowest eigenvalue:  0.769015E-03
  Factoring overlap matrix with Cholesky decomposition
  Using Cholesky factor for transformation
  Using 1-stage real ELPA solver
  Solving real symmetric generalised eigenvalue problem by standard ScaLAPACK.
  Using Cholesky factor for transformation
  Using 1-stage real ELPA solver
  Determining occupation numbers for Kohn-Sham eigenstates.
  | Chemical potential (Fermi level) in eV                 : -.87131474E+01
  | Error in electron count due to remaining E_F inaccuracy: 0.43787480E-08
  | Maximum occupation number of highest empty state:  0.00E+00

  Writing Kohn-Sham eigenvalues.

  Spin-up eigenvalues:

  State    Occupation    Eigenvalue [Ha]    Eigenvalue [eV]
      1       1.00000        -668.787410       -18198.63135
      2       1.00000        -281.712764        -7665.79434
      3       1.00000        -281.635569        -7663.69377
      4       1.00000        -281.596172        -7662.62172
      5       1.00000         -91.142343        -2480.10934
      6       1.00000         -81.260203        -2211.20263
      7       1.00000         -81.259534        -2211.18442
      8       1.00000         -81.259421        -2211.18135
      9       1.00000         -33.227898         -904.17710
     10       1.00000         -33.149850         -902.05330
     11       1.00000         -33.109675         -900.96011
     12       1.00000         -28.475977         -774.87075
     13       1.00000         -28.473106         -774.79263
     14       1.00000         -28.472510         -774.77642
     15       1.00000         -28.396717         -772.71398
     16       1.00000         -28.396030         -772.69528
     17       1.00000         -28.395568         -772.68273
     18       1.00000         -28.356610         -771.62262
     19       1.00000         -28.355942         -771.60444
     20       1.00000         -28.355775         -771.59990
     21       1.00000         -14.943143         -406.62360
     22       1.00000         -11.742755         -319.53661
     23       1.00000         -11.735730         -319.34547
     24       1.00000         -11.734523         -319.31263
     25       1.00000          -6.488149         -176.55151
     26       1.00000          -6.486156         -176.49730
     27       1.00000          -6.485239         -176.47234
     28       1.00000          -6.480419         -176.34117
     29       1.00000          -6.480392         -176.34045
     30       1.00000          -3.938446         -107.17058
     31       1.00000          -3.846720         -104.67457
     32       1.00000          -3.798799         -103.37059
     33       1.00000          -2.629553          -71.55379
     34       1.00000          -2.576209          -70.10223
     35       1.00000          -2.564803          -69.79184
     36       1.00000          -2.504171          -68.14196
     37       1.00000          -2.498694          -67.99293
     38       1.00000          -2.488487          -67.71517
     39       1.00000          -2.452378          -66.73260
     40       1.00000          -2.445401          -66.54274
     41       1.00000          -2.443190          -66.48258
     42       1.00000          -2.088824          -56.83979
     43       1.00000          -1.319096          -35.89444
     44       1.00000          -1.288804          -35.07013
     45       1.00000          -1.273046          -34.64133
     46       1.00000          -0.564982          -15.37393
     47       1.00000          -0.531202          -14.45476
     48       1.00000          -0.513846          -13.98247
     49       1.00000          -0.488585          -13.29507
     50       1.00000          -0.474878          -12.92208
     51       1.00000          -0.441662          -12.01824
     52       1.00000          -0.428693          -11.66533
     53       1.00000          -0.402262          -10.94610
     54       1.00000          -0.399999          -10.88452
     55       1.00000          -0.381641          -10.38499
     56       1.00000          -0.354936           -9.65831
     57       1.00000          -0.345719           -9.40748
     58       1.00000          -0.337466           -9.18292
     59       1.00000          -0.329648           -8.97019
     60       1.00000          -0.326337           -8.88009
     61       0.50000          -0.320202           -8.71315
     62       0.00000          -0.242862           -6.60862
     63       0.00000          -0.218756           -5.95265
     64       0.00000          -0.209354           -5.69682
     65       0.00000          -0.192600           -5.24093
     66       0.00000          -0.184162           -5.01131
     67       0.00000          -0.152626           -4.15315
     68       0.00000          -0.133579           -3.63487
     69       0.00000          -0.113633           -3.09212
     70       0.00000          -0.077288           -2.10312
     71       0.00000          -0.053995           -1.46928

  Spin-down eigenvalues:

  State    Occupation    Eigenvalue [Ha]    Eigenvalue [eV]
      1       1.00000        -668.787410       -18198.63135
      2       1.00000        -281.712764        -7665.79434
      3       1.00000        -281.635569        -7663.69377
      4       1.00000        -281.596172        -7662.62172
      5       1.00000         -91.142343        -2480.10934
      6       1.00000         -81.260203        -2211.20263
      7       1.00000         -81.259534        -2211.18442
      8       1.00000         -81.259421        -2211.18135
      9       1.00000         -33.227898         -904.17710
     10       1.00000         -33.149850         -902.05330
     11       1.00000         -33.109675         -900.96011
     12       1.00000         -28.475977         -774.87075
     13       1.00000         -28.473106         -774.79263
     14       1.00000         -28.472510         -774.77642
     15       1.00000         -28.396717         -772.71398
     16       1.00000         -28.396030         -772.69528
     17       1.00000         -28.395568         -772.68273
     18       1.00000         -28.356610         -771.62262
     19       1.00000         -28.355942         -771.60444
     20       1.00000         -28.355775         -771.59990
     21       1.00000         -14.943143         -406.62360
     22       1.00000         -11.742755         -319.53661
     23       1.00000         -11.735730         -319.34547
     24       1.00000         -11.734523         -319.31263
     25       1.00000          -6.488149         -176.55151
     26       1.00000          -6.486156         -176.49730
     27       1.00000          -6.485239         -176.47234
     28       1.00000          -6.480419         -176.34117
     29       1.00000          -6.480392         -176.34045
     30       1.00000          -3.938446         -107.17058
     31       1.00000          -3.846720         -104.67457
     32       1.00000          -3.798799         -103.37059
     33       1.00000          -2.629553          -71.55379
     34       1.00000          -2.576209          -70.10223
     35       1.00000          -2.564803          -69.79184
     36       1.00000          -2.504171          -68.14196
     37       1.00000          -2.498694          -67.99293
     38       1.00000          -2.488487          -67.71517
     39       1.00000          -2.452378          -66.73260
     40       1.00000          -2.445401          -66.54274
     41       1.00000          -2.443190          -66.48258
     42       1.00000          -2.088824          -56.83979
     43       1.00000          -1.319096          -35.89444
     44       1.00000          -1.288804          -35.07013
     45       1.00000          -1.273046          -34.64133
     46       1.00000          -0.564982          -15.37393
     47       1.00000          -0.531202          -14.45476
     48       1.00000          -0.513846          -13.98247
     49       1.00000          -0.488585          -13.29507
     50       1.00000          -0.474878          -12.92208
     51       1.00000          -0.441662          -12.01824
     52       1.00000          -0.428693          -11.66533
     53       1.00000          -0.402262          -10.94610
     54       1.00000          -0.399999          -10.88452
     55       1.00000          -0.381641          -10.38499
     56       1.00000          -0.354936           -9.65831
     57       1.00000          -0.345719           -9.40748
     58       1.00000          -0.337466           -9.18292
     59       1.00000          -0.329648           -8.97019
     60       1.00000          -0.326337           -8.88009
     61       0.50000          -0.320202           -8.71315
     62       0.00000          -0.242862           -6.60862
     63       0.00000          -0.218756           -5.95265
     64       0.00000          -0.209354           -5.69682
     65       0.00000          -0.192600           -5.24093
     66       0.00000          -0.184162           -5.01131
     67       0.00000          -0.152626           -4.15315
     68       0.00000          -0.133579           -3.63487
     69       0.00000          -0.113633           -3.09212
     70       0.00000          -0.077288           -2.10312
     71       0.00000          -0.053995           -1.46928

  Current spin moment of the entire structure :
  | N = N_up - N_down :    0.00
  | S                 :    0.00
  | J                 :    1.00

  Highest occupied state (VBM) at     -8.71314737 eV
  | Occupation number:      0.50000000
  | Spin channel:        1

  Lowest unoccupied state (CBM) at    -6.60861866 eV
  | Occupation number:      0.00000000
  | Spin channel:        2

  Overall HOMO-LUMO gap:      2.10452871 eV.
  Calculating total energy contributions from superposition of free atom densities.

  Total energy components:
  | Sum of eigenvalues            :       -4666.06831867 Ha     -126970.17912262 eV
  | XC energy correction          :        -293.57820113 Ha       -7988.66931169 eV
  | XC potential correction       :         381.66957234 Ha       10385.75748491 eV
  | Free-atom electrostatic energy:       -3249.80726958 Ha      -88431.75516341 eV
  | Hartree energy correction     :           0.00000000 Ha           0.00000000 eV
  | van der Waals energy corr.    :           0.00000000 Ha           0.00000000 eV
  | Entropy correction            :          -0.00001037 Ha          -0.00028209 eV
  | ---------------------------
  | Total energy                  :       -7827.78421704 Ha     -213004.84611282 eV
  | Total energy, T -> 0          :       -7827.78422740 Ha     -213004.84639491 eV  <-- do not rely on this value for anything but (periodic) metals
  | Electronic free energy        :       -7827.78423777 Ha     -213004.84667701 eV

  Derived energy quantities:
  | Kinetic energy                :        7985.31000773 Ha      217291.34097210 eV
  | Electrostatic energy          :      -15519.51602364 Ha     -422307.51777323 eV
  | Energy correction for multipole
  | error in Hartree potential    :           0.00000000 Ha           0.00000000 eV
  | Sum of eigenvalues per atom                           :      -31742.54478066 eV
  | Total energy (T->0) per atom                          :      -53251.21159873 eV  <-- do not rely on this value for anything but (periodic) metals
  | Electronic free energy per atom                       :      -53251.21166925 eV
  Initialize hartree_potential_storage
  Max. number of atoms included in rho_multipole:            4

  End scf initialization - timings             :  max(cpu_time)    wall_clock(cpu1)
  | Time for scf. initialization               :        0.286 s           0.288 s
  | Boundary condition initialization          :        0.000 s           0.000 s
  | Relaxation initialization                  :        0.000 s           0.000 s
  | Integration                                :        0.178 s           0.178 s
  | Solution of K.-S. eqns.                    :        0.018 s           0.019 s
  | Grid partitioning                          :        0.034 s           0.034 s
  | Preloading free-atom quantities on grid    :        0.021 s           0.021 s
  | Free-atom superposition energy             :        0.011 s           0.012 s
  | Total energy evaluation                    :        0.000 s           0.000 s
------------------------------------------------------------

------------------------------------------------------------
          Begin self-consistency iteration #    1

  Date     :  20220124, Time     :  230132.314
------------------------------------------------------------
  Evaluating new KS density.
  Integration grid: deviation in total charge (<rho> - N_e) =   4.866360E-06
  | <rho_up-rho_dn> = N_up-N_dn =     -0.0000; <|rho_up-rho_dn|> =      0.0000
  Pulay mixing of updated and previous charge densities.

  Evaluating partitioned Hartree potential by multipole expansion.
  | Analytical far-field extrapolation by fixed multipoles:
  | Hartree multipole sum: apparent total charge =  -0.328683E-05
  Summing up the Hartree potential.
  Time summed over all CPUs for potential: real work        0.252 s, elapsed        0.255 s
  | RMS charge density error from multipole expansion :   0.242392E-02

  Integrating Hamiltonian matrix: batch-based integration.
  Time summed over all CPUs for integration: real work        1.019 s, elapsed        1.034 s

  Updating Kohn-Sham eigenvalues, eigenvectors, occupation numbers, and Fermi level.
  Solving generalized eigenproblem
  Solving real symmetric generalised eigenvalue problem by standard ScaLAPACK.
  Using Cholesky factor for transformation
  Using 1-stage real ELPA solver
  Solving real symmetric generalised eigenvalue problem by standard ScaLAPACK.
  Using Cholesky factor for transformation
  Using 1-stage real ELPA solver
  Determining occupation numbers for Kohn-Sham eigenstates.
  | Chemical potential (Fermi level) in eV                 : 0.11692461E+01
  | Error in electron count due to remaining E_F inaccuracy: -.95994324E-10
  | Maximum occupation number of highest empty state:  0.00E+00

  Writing Kohn-Sham eigenvalues.

  Spin-up eigenvalues:

  State    Occupation    Eigenvalue [Ha]    Eigenvalue [eV]
      1       1.00000        -668.806221       -18199.14324
      2       1.00000        -280.937546        -7644.69959
      3       1.00000        -280.873017        -7642.94367
      4       1.00000        -280.735598        -7639.20429
      5       1.00000         -91.158065        -2480.53715
      6       1.00000         -81.276205        -2211.63807
      7       1.00000         -81.276163        -2211.63692
      8       1.00000         -81.275707        -2211.62450
      9       1.00000         -32.474809         -883.68451
     10       1.00000         -32.403093         -881.73303
     11       1.00000         -32.272995         -878.19288
     12       1.00000         -27.721230         -754.33305
     13       1.00000         -27.713203         -754.11461
     14       1.00000         -27.711218         -754.06060
     15       1.00000         -27.651004         -752.42211
     16       1.00000         -27.644172         -752.23618
     17       1.00000         -27.639621         -752.11235
     18       1.00000         -27.515753         -748.74172
     19       1.00000         -27.513502         -748.68047
     20       1.00000         -27.511427         -748.62402
     21       1.00000         -14.948186         -406.76083
     22       1.00000         -11.744431         -319.58223
     23       1.00000         -11.742415         -319.52736
     24       1.00000         -11.741151         -319.49299
     25       1.00000          -6.491018         -176.62960
     26       1.00000          -6.490415         -176.61318
     27       1.00000          -6.489651         -176.59238
     28       1.00000          -6.488218         -176.55338
     29       1.00000          -6.488122         -176.55077
     30       1.00000          -3.379746          -91.96756
     31       1.00000          -3.263460          -88.80327
     32       1.00000          -3.170206          -86.26569
     33       1.00000          -2.157001          -58.69497
     34       1.00000          -2.027568          -55.17292
     35       1.00000          -2.023549          -55.06357
     36       1.00000          -2.005916          -54.58376
     37       1.00000          -1.940473          -52.80296
     38       1.00000          -1.925882          -52.40591
     39       1.00000          -1.919049          -52.21999
     40       1.00000          -1.848097          -50.28928
     41       1.00000          -1.835484          -49.94607
     42       1.00000          -1.830748          -49.81718
     43       1.00000          -1.258316          -34.24051
     44       1.00000          -1.256960          -34.20362
     45       1.00000          -1.247816          -33.95480
     46       1.00000          -0.263521           -7.17076
     47       1.00000          -0.258601           -7.03689
     48       1.00000          -0.243817           -6.63459
     49       1.00000          -0.209053           -5.68862
     50       1.00000          -0.201956           -5.49550
     51       1.00000          -0.190792           -5.19171
     52       1.00000          -0.113337           -3.08406
     53       1.00000          -0.104852           -2.85318
     54       1.00000          -0.086099           -2.34287
     55       1.00000          -0.017573           -0.47818
     56       1.00000          -0.012651           -0.34425
     57       1.00000          -0.009226           -0.25105
     58       1.00000          -0.004495           -0.12231
     59       1.00000          -0.000621           -0.01690
     60       1.00000           0.018736            0.50983
     61       0.50000           0.042969            1.16925
     62       0.00000           0.048990            1.33309
     63       0.00000           0.059134            1.60913
     64       0.00000           0.064386            1.75203
     65       0.00000           0.068716            1.86986
     66       0.00000           0.075522            2.05506
     67       0.00000           0.090064            2.45078
     68       0.00000           0.102090            2.77802
     69       0.00000           0.115594            3.14548
     70       0.00000           0.125768            3.42233
     71       0.00000           0.139983            3.80914

  Spin-down eigenvalues:

  State    Occupation    Eigenvalue [Ha]    Eigenvalue [eV]
      1       1.00000        -668.806221       -18199.14324
      2       1.00000        -280.937546        -7644.69959
      3       1.00000        -280.873017        -7642.94367
      4       1.00000        -280.735598        -7639.20429
      5       1.00000         -91.158065        -2480.53715
      6       1.00000         -81.276205        -2211.63807
      7       1.00000         -81.276163        -2211.63692
      8       1.00000         -81.275707        -2211.62450
      9       1.00000         -32.474809         -883.68451
     10       1.00000         -32.403093         -881.73303
     11       1.00000         -32.272995         -878.19288
     12       1.00000         -27.721230         -754.33305
     13       1.00000         -27.713203         -754.11461
     14       1.00000         -27.711218         -754.06060
     15       1.00000         -27.651004         -752.42211
     16       1.00000         -27.644172         -752.23618
     17       1.00000         -27.639621         -752.11235
     18       1.00000         -27.515753         -748.74172
     19       1.00000         -27.513502         -748.68047
     20       1.00000         -27.511427         -748.62402
     21       1.00000         -14.948186         -406.76083
     22       1.00000         -11.744431         -319.58223
     23       1.00000         -11.742415         -319.52736
     24       1.00000         -11.741151         -319.49299
     25       1.00000          -6.491018         -176.62960
     26       1.00000          -6.490415         -176.61318
     27       1.00000          -6.489651         -176.59238
     28       1.00000          -6.488218         -176.55338
     29       1.00000          -6.488122         -176.55077
     30       1.00000          -3.379746          -91.96756
     31       1.00000          -3.263460          -88.80327
     32       1.00000          -3.170206          -86.26569
     33       1.00000          -2.157001          -58.69497
     34       1.00000          -2.027568          -55.17292
     35       1.00000          -2.023549          -55.06357
     36       1.00000          -2.005916          -54.58376
     37       1.00000          -1.940473          -52.80296
     38       1.00000          -1.925882          -52.40591
     39       1.00000          -1.919049          -52.21999
     40       1.00000          -1.848097          -50.28928
     41       1.00000          -1.835484          -49.94607
     42       1.00000          -1.830748          -49.81718
     43       1.00000          -1.258316          -34.24051
     44       1.00000          -1.256960          -34.20362
     45       1.00000          -1.247816          -33.95480
     46       1.00000          -0.263521           -7.17076
     47       1.00000          -0.258601           -7.03689
     48       1.00000          -0.243817           -6.63459
     49       1.00000          -0.209053           -5.68862
     50       1.00000          -0.201956           -5.49550
     51       1.00000          -0.190792           -5.19171
     52       1.00000          -0.113337           -3.08406
     53       1.00000          -0.104852           -2.85318
     54       1.00000          -0.086099           -2.34287
     55       1.00000          -0.017573           -0.47818
     56       1.00000          -0.012651           -0.34425
     57       1.00000          -0.009226           -0.25105
     58       1.00000          -0.004495           -0.12231
     59       1.00000          -0.000621           -0.01690
     60       1.00000           0.018736            0.50983
     61       0.50000           0.042969            1.16925
     62       0.00000           0.048990            1.33309
     63       0.00000           0.059134            1.60913
     64       0.00000           0.064386            1.75203
     65       0.00000           0.068716            1.86986
     66       0.00000           0.075522            2.05506
     67       0.00000           0.090064            2.45078
     68       0.00000           0.102090            2.77802
     69       0.00000           0.115594            3.14548
     70       0.00000           0.125768            3.42233
     71       0.00000           0.139983            3.80914

  Current spin moment of the entire structure :
  | N = N_up - N_down :    0.00
  | S                 :    0.00
  | J                 :    1.00

  Highest occupied state (VBM) at      1.16924606 eV
  | Occupation number:      0.50000000
  | Spin channel:        2
 * WARNING: The VBM is higher than the internal energy zero!

  Lowest unoccupied state (CBM) at     1.16924606 eV
  | Occupation number:      0.50000000
  | Spin channel:        1

  Overall HOMO-LUMO gap:      0.00000000 eV.

  Total energy components:
  | Sum of eigenvalues            :       -4619.00159098 Ha     -125689.42829839 eV
  | XC energy correction          :        -295.52578624 Ha       -8041.66579908 eV
  | XC potential correction       :         384.24330058 Ha       10455.79219368 eV
  | Free-atom electrostatic energy:       -3249.80726958 Ha      -88431.75516341 eV
  | Hartree energy correction     :         -50.76638044 Ha       -1381.42349775 eV
  | van der Waals energy corr.    :           0.00000000 Ha           0.00000000 eV
  | Entropy correction            :          -0.00001037 Ha          -0.00028209 eV
  | ---------------------------
  | Total energy                  :       -7830.85772666 Ha     -213088.48056495 eV
  | Total energy, T -> 0          :       -7830.85773703 Ha     -213088.48084704 eV  <-- do not rely on this value for anything but (periodic) metals
  | Electronic free energy        :       -7830.85774739 Ha     -213088.48112914 eV

  Derived energy quantities:
  | Kinetic energy                :        7997.16928124 Ha      217614.04822342 eV
  | Electrostatic energy          :      -15532.50122166 Ha     -422660.86298929 eV
  | Energy correction for multipole
  | error in Hartree potential    :          -0.00226928 Ha          -0.06175035 eV
  | Sum of eigenvalues per atom                           :      -31422.35707460 eV
  | Total energy (T->0) per atom                          :      -53272.12021176 eV  <-- do not rely on this value for anything but (periodic) metals
  | Electronic free energy per atom                       :      -53272.12028228 eV

  Self-consistency convergence accuracy:
  | Change of charge/spin density : 0.1074E+01 0.5420E-11
  | Change of sum of eigenvalues  : 0.1281E+04 eV
  | Change of total energy        : -.8363E+02 eV

  End self-consistency iteration #     1       :  max(cpu_time)    wall_clock(cpu1)
  | Time for this iteration                    :        0.323 s           0.323 s
  | Charge density update                      :        0.142 s           0.141 s
  | Density mixing                             :        0.002 s           0.003 s
  | Hartree multipole update                   :        0.003 s           0.002 s
  | Hartree multipole summation                :        0.032 s           0.033 s
  | Integration                                :        0.130 s           0.130 s
  | Solution of K.-S. eqns.                    :        0.009 s           0.009 s
  | Total energy evaluation                    :        0.000 s           0.001 s
------------------------------------------------------------

------------------------------------------------------------
          Begin self-consistency iteration #    2

  Date     :  20220124, Time     :  230132.639
------------------------------------------------------------
  Evaluating new KS density.
  Integration grid: deviation in total charge (<rho> - N_e) =   2.912618E-06
  | <rho_up-rho_dn> = N_up-N_dn =     -0.0000; <|rho_up-rho_dn|> =      0.0000
  Pulay mixing of updated and previous charge densities.

  Evaluating partitioned Hartree potential by multipole expansion.
  | Analytical far-field extrapolation by fixed multipoles:
  | Hartree multipole sum: apparent total charge =  -0.269409E-05
  Summing up the Hartree potential.
  Time summed over all CPUs for potential: real work        0.253 s, elapsed        0.257 s
  | RMS charge density error from multipole expansion :   0.218913E-02

  Integrating Hamiltonian matrix: batch-based integration.
  Time summed over all CPUs for integration: real work        1.016 s, elapsed        1.038 s

  Updating Kohn-Sham eigenvalues, eigenvectors, occupation numbers, and Fermi level.
  Solving generalized eigenproblem
  Solving real symmetric generalised eigenvalue problem by standard ScaLAPACK.
  Using Cholesky factor for transformation
  Using 1-stage real ELPA solver
  Solving real symmetric generalised eigenvalue problem by standard ScaLAPACK.
  Using Cholesky factor for transformation
  Using 1-stage real ELPA solver
  Determining occupation numbers for Kohn-Sham eigenstates.
  | Chemical potential (Fermi level) in eV                 : -.37878297E+01
  | Error in electron count due to remaining E_F inaccuracy: 0.00000000E+00
  | Maximum occupation number of highest empty state:  0.00E+00

  Current spin moment of the entire structure :
  | N = N_up - N_down :    0.00
  | S                 :    0.00
  | J                 :    1.00

  Highest occupied state (VBM) at     -3.78782967 eV
  | Occupation number:      0.50000001
  | Spin channel:        2

  Lowest unoccupied state (CBM) at    -3.78782967 eV
  | Occupation number:      0.49999999
  | Spin channel:        1

  Overall HOMO-LUMO gap:      0.00000000 eV.

  Total energy components:
  | Sum of eigenvalues            :       -4642.76041242 Ha     -126335.93872383 eV
  | XC energy correction          :        -294.29713002 Ha       -8008.23236224 eV
  | XC potential correction       :         382.62080823 Ha       10411.64193044 eV
  | Free-atom electrostatic energy:       -3249.80726958 Ha      -88431.75516341 eV
  | Hartree energy correction     :         -23.87718659 Ha        -649.73130512 eV
  | van der Waals energy corr.    :           0.00000000 Ha           0.00000000 eV
  | Entropy correction            :          -0.00001037 Ha          -0.00028209 eV
  | ---------------------------
  | Total energy                  :       -7828.12119039 Ha     -213014.01562417 eV
  | Total energy, T -> 0          :       -7828.12120075 Ha     -213014.01590626 eV  <-- do not rely on this value for anything but (periodic) metals
  | Electronic free energy        :       -7828.12121112 Ha     -213014.01618835 eV

  Derived energy quantities:
  | Kinetic energy                :        7989.96449126 Ha      217417.99591304 eV
  | Electrostatic energy          :      -15523.78855162 Ha     -422423.77917496 eV
  | Energy correction for multipole
  | error in Hartree potential    :          -0.00286214 Ha          -0.07788270 eV
  | Sum of eigenvalues per atom                           :      -31583.98468096 eV
  | Total energy (T->0) per atom                          :      -53253.50397657 eV  <-- do not rely on this value for anything but (periodic) metals
  | Electronic free energy per atom                       :      -53253.50404709 eV

  Self-consistency convergence accuracy:
  | Change of charge/spin density : 0.3696E+01 0.1838E-09
  | Change of sum of eigenvalues  : -.6465E+03 eV
  | Change of total energy        : 0.7446E+02 eV

  End self-consistency iteration #     2       :  max(cpu_time)    wall_clock(cpu1)
  | Time for this iteration                    :        0.318 s           0.318 s
  | Charge density update                      :        0.139 s           0.139 s
  | Density mixing                             :        0.003 s           0.003 s
  | Hartree multipole update                   :        0.003 s           0.003 s
  | Hartree multipole summation                :        0.033 s           0.032 s
  | Integration                                :        0.130 s           0.131 s
  | Solution of K.-S. eqns.                    :        0.009 s           0.009 s
  | Total energy evaluation                    :        0.000 s           0.000 s
------------------------------------------------------------

------------------------------------------------------------
          Begin self-consistency iteration #    3

  Date     :  20220124, Time     :  230132.959
------------------------------------------------------------
  Evaluating new KS density.
  Integration grid: deviation in total charge (<rho> - N_e) =   2.666382E-06
  | <rho_up-rho_dn> = N_up-N_dn =     -0.0000; <|rho_up-rho_dn|> =      0.0000
  Pulay mixing of updated and previous charge densities.

  Evaluating partitioned Hartree potential by multipole expansion.
  | Analytical far-field extrapolation by fixed multipoles:
  | Hartree multipole sum: apparent total charge =  -0.286870E-05
  Summing up the Hartree potential.
  Time summed over all CPUs for potential: real work        0.253 s, elapsed        0.262 s
  | RMS charge density error from multipole expansion :   0.228599E-02

  Integrating Hamiltonian matrix: batch-based integration.
  Time summed over all CPUs for integration: real work        1.019 s, elapsed        1.036 s

  Updating Kohn-Sham eigenvalues, eigenvectors, occupation numbers, and Fermi level.
  Solving generalized eigenproblem
  Solving real symmetric generalised eigenvalue problem by standard ScaLAPACK.
  Using Cholesky factor for transformation
  Using 1-stage real ELPA solver
  Solving real symmetric generalised eigenvalue problem by standard ScaLAPACK.
  Using Cholesky factor for transformation
  Using 1-stage real ELPA solver
  Determining occupation numbers for Kohn-Sham eigenstates.
  | Chemical potential (Fermi level) in eV                 : -.55081404E+01
  | Error in electron count due to remaining E_F inaccuracy: 0.36275196E-08
  | Maximum occupation number of highest empty state:  0.00E+00

  Current spin moment of the entire structure :
  | N = N_up - N_down :    0.00
  | S                 :    0.00
  | J                 :    1.00

  Highest occupied state (VBM) at     -5.50814036 eV
  | Occupation number:      0.50000006
  | Spin channel:        2

  Lowest unoccupied state (CBM) at    -5.50814035 eV
  | Occupation number:      0.49999994
  | Spin channel:        1

  Overall HOMO-LUMO gap:      0.00000000 eV.

  Total energy components:
  | Sum of eigenvalues            :       -4644.69819917 Ha     -126388.66858419 eV
  | XC energy correction          :        -294.19230779 Ha       -8005.38000417 eV
  | XC potential correction       :         382.48242729 Ha       10407.87639337 eV
  | Free-atom electrostatic energy:       -3249.80726958 Ha      -88431.75516341 eV
  | Hartree energy correction     :         -21.11744809 Ha        -574.63499951 eV
  | van der Waals energy corr.    :           0.00000000 Ha           0.00000000 eV
  | Entropy correction            :          -0.00001037 Ha          -0.00028209 eV
  | ---------------------------
  | Total energy                  :       -7827.33279734 Ha     -212992.56235791 eV
  | Total energy, T -> 0          :       -7827.33280771 Ha     -212992.56264000 eV  <-- do not rely on this value for anything but (periodic) metals
  | Electronic free energy        :       -7827.33281807 Ha     -212992.56292210 eV

  Derived energy quantities:
  | Kinetic energy                :        7989.71332205 Ha      217411.16125107 eV
  | Electrostatic energy          :      -15522.85381160 Ha     -422398.34360482 eV
  | Energy correction for multipole
  | error in Hartree potential    :          -0.00302473 Ha          -0.08230708 eV
  | Sum of eigenvalues per atom                           :      -31597.16714605 eV
  | Total energy (T->0) per atom                          :      -53248.14066000 eV  <-- do not rely on this value for anything but (periodic) metals
  | Electronic free energy per atom                       :      -53248.14073052 eV

  Self-consistency convergence accuracy:
  | Change of charge/spin density : 0.2044E+01 0.1538E-08
  | Change of sum of eigenvalues  : -.5273E+02 eV
  | Change of total energy        : 0.2145E+02 eV

  End self-consistency iteration #     3       :  max(cpu_time)    wall_clock(cpu1)
  | Time for this iteration                    :        0.324 s           0.323 s
  | Charge density update                      :        0.142 s           0.141 s
  | Density mixing                             :        0.004 s           0.004 s
  | Hartree multipole update                   :        0.003 s           0.003 s
  | Hartree multipole summation                :        0.033 s           0.034 s
  | Integration                                :        0.130 s           0.130 s
  | Solution of K.-S. eqns.                    :        0.009 s           0.010 s
  | Total energy evaluation                    :        0.000 s           0.001 s
------------------------------------------------------------

------------------------------------------------------------
          Begin self-consistency iteration #    4

  Date     :  20220124, Time     :  230133.284
------------------------------------------------------------
  Evaluating new KS density.
  Integration grid: deviation in total charge (<rho> - N_e) =   2.500614E-06
  | <rho_up-rho_dn> = N_up-N_dn =     -0.0000; <|rho_up-rho_dn|> =      0.0000
  Pulay mixing of updated and previous charge densities.

  Evaluating partitioned Hartree potential by multipole expansion.
  | Analytical far-field extrapolation by fixed multipoles:
  | Hartree multipole sum: apparent total charge =  -0.333943E-05
  Summing up the Hartree potential.
  Time summed over all CPUs for potential: real work        0.252 s, elapsed        0.256 s
  | RMS charge density error from multipole expansion :   0.245134E-02

  Integrating Hamiltonian matrix: batch-based integration.
  Time summed over all CPUs for integration: real work        1.019 s, elapsed        1.041 s

  Updating Kohn-Sham eigenvalues, eigenvectors, occupation numbers, and Fermi level.
  Solving generalized eigenproblem
  Solving real symmetric generalised eigenvalue problem by standard ScaLAPACK.
  Using Cholesky factor for transformation
  Using 1-stage real ELPA solver
  Solving real symmetric generalised eigenvalue problem by standard ScaLAPACK.
  Using Cholesky factor for transformation
  Using 1-stage real ELPA solver
  Determining occupation numbers for Kohn-Sham eigenstates.
  | Chemical potential (Fermi level) in eV                 : -.45465993E+01
  | Error in electron count due to remaining E_F inaccuracy: 0.41339376E-10
  | Maximum occupation number of highest empty state:  0.00E+00

  Current spin moment of the entire structure :
  | N = N_up - N_down :    0.00
  | S                 :    0.00
  | J                 :    1.00

  Highest occupied state (VBM) at     -4.54659929 eV
  | Occupation number:      0.50000296
  | Spin channel:        2

  Lowest unoccupied state (CBM) at    -4.54659928 eV
  | Occupation number:      0.49999704
  | Spin channel:        1

  Overall HOMO-LUMO gap:      0.00000001 eV.

  Total energy components:
  | Sum of eigenvalues            :       -4642.40148006 Ha     -126326.17167728 eV
  | XC energy correction          :        -294.26692610 Ha       -8007.41047178 eV
  | XC potential correction       :         382.58118751 Ha       10410.56379568 eV
  | Free-atom electrostatic energy:       -3249.80726958 Ha      -88431.75516341 eV
  | Hartree energy correction     :         -23.35403589 Ha        -635.49565033 eV
  | van der Waals energy corr.    :           0.00000000 Ha           0.00000000 eV
  | Entropy correction            :          -0.00001037 Ha          -0.00028209 eV
  | ---------------------------
  | Total energy                  :       -7827.24852413 Ha     -212990.26916712 eV
  | Total energy, T -> 0          :       -7827.24853450 Ha     -212990.26944922 eV  <-- do not rely on this value for anything but (periodic) metals
  | Electronic free energy        :       -7827.24854486 Ha     -212990.26973131 eV

  Derived energy quantities:
  | Kinetic energy                :        7989.82454082 Ha      217414.18766772 eV
  | Electrostatic energy          :      -15522.80613884 Ha     -422397.04636307 eV
  | Energy correction for multipole
  | error in Hartree potential    :          -0.00349445 Ha          -0.09508884 eV
  | Sum of eigenvalues per atom                           :      -31581.54291932 eV
  | Total energy (T->0) per atom                          :      -53247.56736230 eV  <-- do not rely on this value for anything but (periodic) metals
  | Electronic free energy per atom                       :      -53247.56743283 eV

  Self-consistency convergence accuracy:
  | Change of charge/spin density : 0.6007E+00 0.3211E-07
  | Change of sum of eigenvalues  : 0.6250E+02 eV
  | Change of total energy        : 0.2293E+01 eV

  End self-consistency iteration #     4       :  max(cpu_time)    wall_clock(cpu1)
  | Time for this iteration                    :        0.321 s           0.319 s
  | Charge density update                      :        0.139 s           0.138 s
  | Density mixing                             :        0.005 s           0.005 s
  | Hartree multipole update                   :        0.003 s           0.002 s
  | Hartree multipole summation                :        0.032 s           0.033 s
  | Integration                                :        0.131 s           0.131 s
  | Solution of K.-S. eqns.                    :        0.009 s           0.009 s
  | Total energy evaluation                    :        0.000 s           0.000 s
------------------------------------------------------------

------------------------------------------------------------
          Begin self-consistency iteration #    5

  Date     :  20220124, Time     :  230133.609
------------------------------------------------------------
  Evaluating new KS density.
  Integration grid: deviation in total charge (<rho> - N_e) =   2.161504E-06
  | <rho_up-rho_dn> = N_up-N_dn =     -0.0000; <|rho_up-rho_dn|> =      0.0000
  Pulay mixing of updated and previous charge densities.

  Evaluating partitioned Hartree potential by multipole expansion.
  | Analytical far-field extrapolation by fixed multipoles:
  | Hartree multipole sum: apparent total charge =  -0.369206E-05
  Summing up the Hartree potential.
  Time summed over all CPUs for potential: real work        0.253 s, elapsed        0.258 s
  | RMS charge density error from multipole expansion :   0.262042E-02

  Integrating Hamiltonian matrix: batch-based integration.
  Time summed over all CPUs for integration: real work        1.018 s, elapsed        1.034 s

  Updating Kohn-Sham eigenvalues, eigenvectors, occupation numbers, and Fermi level.
  Solving generalized eigenproblem
  Solving real symmetric generalised eigenvalue problem by standard ScaLAPACK.
  Using Cholesky factor for transformation
  Using 1-stage real ELPA solver
  Solving real symmetric generalised eigenvalue problem by standard ScaLAPACK.
  Using Cholesky factor for transformation
  Using 1-stage real ELPA solver
  Determining occupation numbers for Kohn-Sham eigenstates.
  | Chemical potential (Fermi level) in eV                 : -.41303927E+01
  | Error in electron count due to remaining E_F inaccuracy: -.41211479E-12
  | Maximum occupation number of highest empty state:  0.00E+00

  Current spin moment of the entire structure :
  | N = N_up - N_down :    0.00
  | S                 :    0.00
  | J                 :    1.00

  Highest occupied state (VBM) at     -4.13039283 eV
  | Occupation number:      0.50007745
  | Spin channel:        2

  Lowest unoccupied state (CBM) at    -4.13039255 eV
  | Occupation number:      0.49992255
  | Spin channel:        1

  Overall HOMO-LUMO gap:      0.00000027 eV.

  Total energy components:
  | Sum of eigenvalues            :       -4640.83801400 Ha     -126283.62760113 eV
  | XC energy correction          :        -294.29673504 Ha       -8008.22161427 eV
  | XC potential correction       :         382.62076411 Ha       10411.64072979 eV
  | Free-atom electrostatic energy:       -3249.80726958 Ha      -88431.75516341 eV
  | Hartree energy correction     :         -24.88183333 Ha        -677.06913389 eV
  | van der Waals energy corr.    :           0.00000000 Ha           0.00000000 eV
  | Entropy correction            :          -0.00001037 Ha          -0.00028209 eV
  | ---------------------------
  | Total energy                  :       -7827.20308784 Ha     -212989.03278292 eV
[...]
     58       1.00000          -0.126770           -3.44959
     59       1.00000          -0.123848           -3.37008
     60       0.00000          -0.105666           -2.87532
     61       0.00000          -0.104223           -2.83605
     62       0.00000          -0.099491           -2.70729
     63       0.00000          -0.096605           -2.62876
     64       0.00000          -0.076097           -2.07071
     65       0.00000          -0.075787           -2.06227
     66       0.00000          -0.073583           -2.00230
     67       0.00000          -0.072916           -1.98414
     68       0.00000          -0.057480           -1.56412
     69       0.00000          -0.052055           -1.41648
     70       0.00000          -0.006094           -0.16583
     71       0.00000           0.013865            0.37729

  Spin-down eigenvalues:

  State    Occupation    Eigenvalue [Ha]    Eigenvalue [eV]
      1       1.00000        -668.642902       -18194.69909
      2       1.00000        -281.409878        -7657.55240
      3       1.00000        -281.397516        -7657.21602
      4       1.00000        -281.397493        -7657.21538
      5       1.00000         -90.994123        -2476.07605
      6       1.00000         -81.112284        -2207.17754
      7       1.00000         -81.112231        -2207.17610
      8       1.00000         -81.111177        -2207.14743
      9       1.00000         -32.929125         -896.04708
     10       1.00000         -32.909525         -895.51374
     11       1.00000         -32.909455         -895.51185
     12       1.00000         -28.175892         -766.70502
     13       1.00000         -28.174957         -766.67958
     14       1.00000         -28.168077         -766.49236
     15       1.00000         -28.161818         -766.32207
     16       1.00000         -28.161749         -766.32018
     17       1.00000         -28.152913         -766.07973
     18       1.00000         -28.152870         -766.07856
     19       1.00000         -28.149937         -765.99877
     20       1.00000         -28.149873         -765.99703
     21       1.00000         -14.794013         -402.56557
     22       1.00000         -11.589405         -315.36376
     23       1.00000         -11.588926         -315.35073
     24       1.00000         -11.587036         -315.29928
     25       1.00000          -6.335442         -172.39616
     26       1.00000          -6.335155         -172.38833
     27       1.00000          -6.333885         -172.35378
     28       1.00000          -6.333484         -172.34287
     29       1.00000          -6.333162         -172.33411
     30       1.00000          -3.637088          -98.97019
     31       1.00000          -3.609622          -98.22281
     32       1.00000          -3.609492          -98.21927
     33       1.00000          -2.295708          -62.46938
     34       1.00000          -2.294608          -62.43946
     35       1.00000          -2.277652          -61.97808
     36       1.00000          -2.275730          -61.92577
     37       1.00000          -2.275586          -61.92183
     38       1.00000          -2.256445          -61.40100
     39       1.00000          -2.256344          -61.39824
     40       1.00000          -2.250512          -61.23955
     41       1.00000          -2.250338          -61.23480
     42       1.00000          -1.920308          -52.25423
     43       1.00000          -1.122151          -30.53528
     44       1.00000          -1.118454          -30.43468
     45       1.00000          -1.111968          -30.25818
     46       1.00000          -0.252840           -6.88012
     47       1.00000          -0.250285           -6.81060
     48       1.00000          -0.233185           -6.34530
     49       1.00000          -0.217460           -5.91740
     50       1.00000          -0.216428           -5.88930
     51       1.00000          -0.204487           -5.56438
     52       1.00000          -0.193743           -5.27201
     53       1.00000          -0.186449           -5.07352
     54       1.00000          -0.178012           -4.84396
     55       1.00000          -0.175486           -4.77522
     56       1.00000          -0.171791           -4.67467
     57       1.00000          -0.169411           -4.60991
     58       1.00000          -0.163442           -4.44748
     59       1.00000          -0.162244           -4.41489
     60       1.00000          -0.154107           -4.19345
     61       1.00000          -0.151557           -4.12408
     62       1.00000          -0.145522           -3.95986
     63       0.00000          -0.113864           -3.09840
     64       0.00000          -0.082916           -2.25627
     65       0.00000          -0.080794           -2.19853
     66       0.00000          -0.074651           -2.03137
     67       0.00000          -0.066840           -1.81881
     68       0.00000          -0.059716           -1.62496
     69       0.00000          -0.044948           -1.22310
     70       0.00000          -0.009843           -0.26785
     71       0.00000           0.009839            0.26773

  Current spin moment of the entire structure :
  | N = N_up - N_down :    3.00
  | S                 :    1.50
  | J                 :    4.00

  Highest occupied state (VBM) at     -3.37008336 eV
  | Occupation number:      1.00000000
  | Spin channel:        1

  Lowest unoccupied state (CBM) at    -3.09839808 eV
  | Occupation number:      0.00000000
  | Spin channel:        2

  Overall HOMO-LUMO gap:      0.27168528 eV.

  Self-consistency cycle converged.

  End self-consistency iteration #    14       :  max(cpu_time)    wall_clock(cpu1)
  | Time for this iteration                    :        0.991 s           0.995 s
  | Charge density & force component update    :        0.753 s           0.752 s
  | Density mixing                             :        0.006 s           0.007 s
  | Hartree multipole update                   :        0.002 s           0.002 s
  | Hartree multipole summation                :        0.087 s           0.088 s
  | Integration                                :        0.131 s           0.131 s
  | Solution of K.-S. eqns.                    :        0.009 s           0.009 s
  | Total energy evaluation                    :        0.001 s           0.002 s
------------------------------------------------------------
  Obtaining max. number of non-zero basis functions in each batch .
  Evaluating KS electron density on previously omitted grid points.
  Evaluating non-empirical van der Waals correction (Tkatchenko/Scheffler 2009).
  Performing Hirshfeld analysis of fragment charges and moments.
  ----------------------------------------------------------------------
  | Atom     1: Co
  |   Hirshfeld charge        :     -0.17160810
  |   Free atom volume        :    100.22352929
  |   Hirshfeld volume        :     91.28546168
  |   Hirshfeld spin moment   :     -1.08404360
  |   Hirshfeld dipole vector :     -0.07748805      -0.16846919      -0.25190561
  |   Hirshfeld dipole moment :      0.31279818
  |   Hirshfeld second moments:      0.11840163      -0.01664653      -0.01077048
  |                                 -0.01664653       0.11690183       0.01143588
  |                                 -0.01077048       0.01143588       0.18332848
  ----------------------------------------------------------------------
  | Atom     2: Co
  |   Hirshfeld charge        :     -0.02012255
  |   Free atom volume        :    100.22352929
  |   Hirshfeld volume        :     88.54120479
  |   Hirshfeld spin moment   :     -1.60830906
  |   Hirshfeld dipole vector :     -0.20204483      -0.25844842       0.20575470
  |   Hirshfeld dipole moment :      0.38723726
  |   Hirshfeld second moments:      0.23563469       0.00465957       0.02284749
  |                                  0.00465957       0.22065078      -0.12523828
  |                                  0.02284749      -0.12523828       0.20770668
  ----------------------------------------------------------------------
  | Atom     3: Co
  |   Hirshfeld charge        :     -0.17136455
  |   Free atom volume        :    100.22352929
  |   Hirshfeld volume        :     91.28269454
  |   Hirshfeld spin moment   :     -1.08847464
  |   Hirshfeld dipole vector :     -0.15215989       0.21997087       0.16206575
  |   Hirshfeld dipole moment :      0.31273811
  |   Hirshfeld second moments:      0.11186547      -0.00593121       0.01281809
  |                                 -0.00593121       0.18253919       0.01879340
  |                                  0.01281809       0.01879340       0.12450598
  ----------------------------------------------------------------------
  | Atom     4: Zr
  |   Hirshfeld charge        :      0.36309774
  |   Free atom volume        :    209.33552215
  |   Hirshfeld volume        :    167.91520798
  |   Hirshfeld spin moment   :      0.78077205
  |   Hirshfeld dipole vector :      0.57385863       0.26719302      -0.14691578
  |   Hirshfeld dipole moment :      0.64983850
  |   Hirshfeld second moments:      1.01540875      -0.02073936       0.15385632
  |                                 -0.02073936       0.65869794      -0.36713832
  |                                  0.15385632      -0.36713832       0.64317682
  ----------------------------------------------------------------------


  Total energy components:
  | Sum of eigenvalues            :       -4639.11213130 Ha     -126236.66394336 eV
  | XC energy correction          :        -293.84732242 Ha       -7995.99247475 eV
  | XC potential correction       :         382.01230663 Ha       10395.08375931 eV
  | Free-atom electrostatic energy:       -3255.76437669 Ha      -88593.85629555 eV
  | Hartree energy correction     :         -20.63240050 Ha        -561.43618303 eV
  | van der Waals energy corr.    :          -0.00049429 Ha          -0.01345030 eV
  | Entropy correction            :           0.00000000 Ha           0.00000000 eV
  | ---------------------------
  | Total energy                  :       -7827.34441857 Ha     -212992.87858766 eV
  | Total energy, T -> 0          :       -7827.34441857 Ha     -212992.87858766 eV  <-- do not rely on this value for anything but (periodic) metals
  | Electronic free energy        :       -7827.34441857 Ha     -212992.87858766 eV

  Derived energy quantities:
  | Kinetic energy                :        7984.55727874 Ha      217270.85817403 eV
  | Electrostatic energy          :      -15518.05388060 Ha     -422267.73083665 eV
  | Energy correction for multipole
  | error in Hartree potential    :           0.00139066 Ha           0.03784191 eV
  | Sum of eigenvalues per atom                           :      -31559.16598584 eV
  | Total energy (T->0) per atom                          :      -53248.21964692 eV  <-- do not rely on this value for anything but (periodic) metals
  | Electronic free energy per atom                       :      -53248.21964692 eV

  atomic forces [eV/Ang]:
  -----------------------
  atom #    1
   Hellmann-Feynman              : -.820474E+01 -.181930E+02 -.734189E+01
   Multipole                     : 0.197975E+00 0.116186E+00 0.129523E+00
   Pulay + GGA                   : 0.800333E+01 0.180985E+02 0.723547E+01
   Van der Waals                 : 0.393663E-02 -.217419E-01 -.233592E-01
   ----------------------------------------------------------------
   Total forces(   1)            : 0.508193E-03 -.123179E-03 -.256997E-03
  atom #    2
   Hellmann-Feynman              : -.814016E+00 0.361234E+01 -.353888E+01
   Multipole                     : -.156254E-01 -.260143E-01 0.219879E-01
   Pulay + GGA                   : 0.832213E+00 -.358556E+01 0.351558E+01
   Van der Waals                 : -.908687E-03 -.968347E-03 0.745573E-03
   ----------------------------------------------------------------
   Total forces(   2)            : 0.166267E-02 -.205042E-03 -.568667E-03
  atom #    3
   Hellmann-Feynman              : -.124598E+02 0.427535E+01 0.165703E+02
   Multipole                     : 0.235526E+00 -.829532E-01 -.819104E-01
   Pulay + GGA                   : 0.122292E+02 -.421408E+01 -.165115E+02
   Van der Waals                 : -.446909E-02 0.218670E-01 0.231470E-01
   ----------------------------------------------------------------
   Total forces(   3)            : 0.505575E-03 0.183702E-03 0.789514E-04
  atom #    4
   Hellmann-Feynman              : 0.504607E+02 0.249684E+02 -.142471E+02
   Multipole                     : 0.286758E-01 0.180008E-01 -.122494E-01
   Pulay + GGA                   : -.504906E+02 -.249872E+02 0.142593E+02
   Van der Waals                 : 0.144114E-02 0.843168E-03 -.533417E-03
   ----------------------------------------------------------------
   Total forces(   4)            : 0.275590E-03 0.704269E-04 -.566725E-03
  Timings for VdW correction (Tkatchenko-Scheffler 2009 or later):
  | CPU time:        0.017 s, Wall clock time:        0.017 s.
  Removing unitary transformations (pure translations, rotations) from forces on atoms.
  Atomic forces before filtering:
  | Net force on center of mass :  0.295203E-02 -.740922E-04 -.131344E-02 eV/A
  | Net torque on center of mass:  0.277440E-03 0.104314E-02 0.116195E-02 eV
  Atomic forces after filtering:
  | Net force on center of mass :  0.261337E-18 0.435562E-19 0.871124E-19 eV/A
  | Net torque on center of mass:  -.460979E-19 -.184392E-18 0.138294E-18 eV

  Energy and forces in a compact form:
  | Total energy uncorrected      :         -0.212992878587664E+06 eV
  | Total energy corrected        :         -0.212992878587664E+06 eV  <-- do not rely on this value for anything but (periodic) metals
  | Electronic free energy        :         -0.212992878587664E+06 eV
  Total atomic forces (unitary forces cleaned) [eV/Ang]:
  |   1         -0.133399358335129E-03         -0.116279848000328E-03          0.843171133501057E-04
  |   2          0.423205385619585E-03          0.473963025898020E-04         -0.473474247087911E-03
  |   3         -0.153487430473683E-03          0.347018159997673E-03          0.270432449053611E-03
  |   4         -0.136318596810772E-03         -0.278134614587147E-03          0.118724684684195E-03

  ------------------------------------ 
  Start decomposition of the XC Energy 
  ------------------------------------ 
  Hartree-Fock part   :          0.000000000 Ha              0.000000000 eV
  ------------------------------------ 
  X Energy            :       -288.141409349 Ha          -7840.726680164 eV
  C Energy GGA        :         -5.705913074 Ha           -155.265794584 eV
  Total XC Energy     :       -293.847322423 Ha          -7995.992474748 eV
  LDA X and C from self-consistent density 
  X Energy LDA        :       -272.084523660 Ha          -7403.796589812 eV
  C Energy LDA        :        -10.670410056 Ha           -290.356630814 eV
  ------------------------------------ 
  End decomposition of the XC Energy 
  ------------------------------------ 
  Relaxation / MD: End force evaluation.       :  max(cpu_time)    wall_clock(cpu1)
  | Time for this force evaluation             :        7.325 s           7.408 s

------------------------------------------------------------
  Geometry optimization: Attempting to predict improved coordinates.

  Removing unitary transformations (pure translations, rotations) from forces on atoms.
  Atomic forces before filtering:
  | Net force on center of mass :  0.261337E-18 0.435562E-19 0.871124E-19 eV/A
  | Net torque on center of mass:  -.460979E-19 -.184392E-18 0.138294E-18 eV
  Atomic forces after filtering:
  | Net force on center of mass :  0.000000E+00 -.435562E-19 0.217781E-19 eV/A
  | Net torque on center of mass:  -.460979E-19 0.230489E-19 0.691468E-19 eV
  Net remaining forces (excluding translations, rotations) in present geometry:
  Maximum force component is  0.473474E-03 eV/A.
  Present geometry is converged.

------------------------------------------------------------
  Final atomic structure:
                         x [A]             y [A]             z [A]
            atom         0.43493234       -0.26015163       -0.08954909  Co
            atom        -0.27884462        0.08996056        1.99363172  Co
            atom        -0.04521879        2.23124079        2.56730070  Co
            atom         1.38913107        1.43895028        1.02861668  Zr
------------------------------------------------------------

------------------------------------------------------------------------------
  Final output of selected total energy values:

  The following output summarizes some interesting total energy values
  at the end of a run (AFTER all relaxation, molecular dynamics, etc.).

  | Total energy of the DFT / Hartree-Fock s.c.f. calculation      :        -212992.878587664 eV
  | Final zero-broadening corrected energy (caution - metals only) :        -212992.878587664 eV
  | For reference only, the value of 1 Hartree used in FHI-aims is :             27.211384500 eV

  Before relying on these values, please be sure to understand exactly which
  total energy value is referred to by a given number. Different objects may
  all carry the same name 'total energy'. Definitions:

  Total energy of the DFT / Hartree-Fock s.c.f. calculation:
  | Note that this energy does not include ANY quantities calculated after the
  | s.c.f. cycle, in particular not ANY RPA, MP2, etc. many-body perturbation terms.

  Final zero-broadening corrected energy:
  | For metallic systems only, a broadening of the occupation numbers at the Fermi
  | level can be extrapolated back to zero broadening by an electron-gas inspired
  | formula. For all systems that are not real metals, this value can be
  | meaningless and should be avoided.

------------------------------------------------------------------------------

   One or more s.c.f. cycles took more than 50 s.c.f. iterations.
   It might be worth adjusting your convergence settings. For example,
   metals need a larger broadening and a smaller "charge_mix_param" value than semiconductors.

------------------------------------------------------------
          Leaving FHI-aims.
          Date     :  20220124, Time     :  230459.983

          Computational steps:
          | Number of self-consistency cycles          :          572
          | Number of relaxation steps                 :           17

          Detailed time accounting                     :  max(cpu_time)    wall_clock(cpu1)
          | Total time                                 :      207.421 s         208.899 s
          | Preparation time                           :        0.889 s           0.885 s
          | Grid partitioning                          :        0.615 s           0.562 s
          | Preloading free-atom quantities on grid    :        0.369 s           0.368 s
          | Free-atom superposition energy             :        0.208 s           0.212 s
          | Total time for integrations                :       76.678 s          76.678 s
          | Total time for solution of K.-S. equations :        5.297 s           5.357 s
          | Total time for EV reorthonormalization     :        0.056 s           0.053 s
          | Total time for density & force components  :       96.311 s          95.559 s
          | Total time for mixing                      :        3.298 s           3.319 s
          | Total time for Hartree multipole update    :        1.449 s           1.477 s
          | Total time for Hartree multipole sum       :       20.870 s          20.920 s
          | Total time for total energy evaluation     :        0.127 s           0.335 s
          | Total time for scaled ZORA corrections     :        0.000 s           0.000 s
          | Total time for vdW correction              :        0.311 s           0.309 s

          Have a nice day.
------------------------------------------------------------
