  MPI-parallelism will be employed.
------------------------------------------------------------
          Invoking FHI-aims ...
          Version 052014
          Git rev. (modified): 096c982 Merge branch master of fhiaims:/pub/localo[...]
          Compiled on 2016/12/16 at 15:22:01 on host login02.hpc.iitd.ac.in.

          When using FHI-aims, please cite the following reference:

          Volker Blum, Ralf Gehrke, Felix Hanke, Paula Havu,
          Ville Havu, Xinguo Ren, Karsten Reuter, and Matthias Scheffler,
          'Ab Initio Molecular Simulations with Numeric Atom-Centered Orbitals: FHI-aims',
          Computer Physics Communications 180, 2175-2196 (2009)

          For any questions about FHI-aims, please visit the aimsclub website
          with its forums and wiki. Contributions to both the forums and the
          wiki are warmly encouraged - they are for you, and everyone is welcome there.

------------------------------------------------------------

  Date     :  20220120, Time     :  153245.163
  Time zero on CPU 1             :   0.126980000000000E-01  s.
  Internal wall clock time zero  :           411924765.163  s.

  Using        8 parallel tasks.
  Task        0 on host csky021 reporting.
  Task        1 on host csky021 reporting.
  Task        2 on host csky021 reporting.
  Task        3 on host csky021 reporting.
  Task        4 on host csky021 reporting.
  Task        5 on host csky021 reporting.
  Task        6 on host csky021 reporting.
  Task        7 on host csky021 reporting.

  Performing system and environment tests:
  | Environment variable OMP_NUM_THREADS correctly set to 1.
  | Stacksize not measured: no C compiler
  | Checking for scalapack...
  | Testing pdtran()...
  | All pdtran() tests passed.

  Obtaining array dimensions for all initial allocations:
  
  -----------------------------------------------------------------------
  Parsing control.in (first pass over file, find array dimensions only).
  The contents of control.in will be repeated verbatim below
  unless switched off by setting 'verbatim_writeout .false.' .
  in the first line of control.in .
  -----------------------------------------------------------------------
  
    xc               pbe
    spin             collinear
    default_initial_moment hund
    relativistic     atomic_zora scalar 1e-9
    occupation_type  gaussian 0.001
    charge        0
    vdw_correction_hirshfeld
    KS_method        scalapack_fast
    mixer            pulay
    charge_mix_param  0.4
    spin_mix_param    0.6
    sc_accuracy_rho  1E-4
    sc_accuracy_eev  1E-5
    sc_accuracy_etot 1E-5
    sc_iter_limit    100
    empty_states     10
  ################################################################################
  #
  #  FHI-aims code project
  # Volker Blum, Fritz Haber Institute Berlin, 2009
  #
  #  Suggested "tight" defaults for H atom (to be pasted into control.in file)
  #
  ################################################################################
    species        H
  #     global species definitions
      nucleus             1
      mass                1.00794
  #
      l_hartree           6
  #
      cut_pot             4.0  2.0  1.0
      basis_dep_cutoff    1e-4
  #
      radial_base         24 7.0
      radial_multiplier   2
      angular_grids       specified
        division   0.1930   50
        division   0.3175  110
        division   0.4293  194
        division   0.5066  302
        division   0.5626  434
  #      division   0.5922  590
  #      division   0.6227  974
  #      division   0.6868 1202
  #      outer_grid  770
        outer_grid  434
  ################################################################################
  #
  #  Definition of "minimal" basis
  #
  ################################################################################
  #     valence basis states
      valence      1  s   1.
  #     ion occupancy
      ion_occ      1  s   0.5
  ################################################################################
  #
  #  Suggested additional basis functions. For production calculations,
  #  uncomment them one after another (the most important basis functions are
  #  listed first).
  #
  #  Basis constructed for dimers: 0.5 A, 0.7 A, 1.0 A, 1.5 A, 2.5 A
  #
  ################################################################################
  #  "First tier" - improvements: -1014.90 meV to -62.69 meV
       hydro 2 s 2.1
       hydro 2 p 3.5
  #  "Second tier" - improvements: -12.89 meV to -1.83 meV
       hydro 1 s 0.85
       hydro 2 p 3.7
       hydro 2 s 1.2
       hydro 3 d 7
  #  "Third tier" - improvements: -0.25 meV to -0.12 meV
  #     hydro 4 f 11.2
  #     hydro 3 p 4.8
  #     hydro 4 d 9
  #     hydro 3 s 3.2
  ################################################################################
  #
  # For methods that use the localized form of the "resolution of identity" for
  # the two-electron Coulomb operator (RI_method LVL), particularly Hartree-Fock and
  # hybrid density functional calculations, the highest accuracy can be obtained by
  # uncommenting the line beginning with "for_aux"  below, thus adding an extra g radial
  # function to the construction of the product basis set for the expansion.
  # See Ref. New J. Phys. 17, 093020 (2015) for more information, particularly Figs. 1 and 6.
  #
  ################################################################################
  #
  # for_aux hydro 5 g 6.0
  
  -----------------------------------------------------------------------
  Completed first pass over input file control.in .
  -----------------------------------------------------------------------
  
  
  -----------------------------------------------------------------------
  Parsing geometry.in (first pass over file, find array dimensions only).
  The contents of geometry.in will be repeated verbatim below
  unless switched off by setting 'verbatim_writeout .false.' .
  in the first line of geometry.in .
  -----------------------------------------------------------------------
  
  atom 0 0 0 H
  atom 0 0 0.54 H
  
  -----------------------------------------------------------------------
  Completed first pass over input file geometry.in .
  -----------------------------------------------------------------------
  

  Basic array size parameters:
  | Number of species                 :        1
  | Number of atoms                   :        2
  | Max. basis fn. angular momentum   :        2
  | Max. atomic/ionic basis occupied n:        1
  | Max. number of basis fn. types    :        2
  | Max. radial fns per species/type  :        6
  | Max. logarithmic grid size        :     1131
  | Max. radial integration grid size :       49
  | Max. angular integration grid size:      434
  | Max. angular grid division number :        8
  | Radial grid for Hartree potential :     1131
  | Number of spin channels           :        2

------------------------------------------------------------
          Reading file control.in.
------------------------------------------------------------
  XC: Using PBE gradient-corrected functionals.
  Spin treatment: Spin density functional theory - collinear spins.
  Initial spin moment per atom set according to Hund's rules.
  Scalar relativistic treatment of kinetic energy: on-site free-atom approximation to ZORA.
  Occupation type: Gaussian broadening, width =   0.100000E-02 eV.
  Charge =   0.000000E+00: Neutral system requested explicitly.
  Using non-empirical van der Waals correction (Hirshfeld partitioning):
  Kohn-Sham eigenvalues and eigenfunctions calculated by the ELPA eigensolver library.
  Using pulay charge density mixing.
  Charge density mixing - mixing parameter:     0.4000
  Spin density mixing - mixing parameter:     0.6000
  Convergence accuracy of self-consistent charge density: 0.1000E-03
  Convergence accuracy of sum of eigenvalues: 0.1000E-04
  Convergence accuracy of total energy: 0.1000E-04
  Maximum number of s.-c. iterations  :   100
  Number of empty states per atom:       10
 
  Reading configuration options for species H                   .
  | Found nuclear charge :   1.0000
  | Found atomic mass :    1.00794000000000      amu
  | Found l_max for Hartree potential  :   6
  | Found cutoff potl. onset [A], width [A], scale factor :    4.00000    2.00000    1.00000
  | Threshold for basis-dependent cutoff potential is   0.100000E-03
  | Found data for basic radial integration grid :    24 points, outermost radius =    7.000 A
  | Found multiplier for basic radial grid :   2
  | Found angular grid specification: user-specified.
  | Specified grid contains     6 separate shells.
  | Check grid settings after all constraints further below.
  | Found free-atom valence shell :  1 s   1.000
  | No ionic wave fns used. Skipping ion_occ.
  | Found hydrogenic basis function :  2 s   2.100
  | Found hydrogenic basis function :  2 p   3.500
  | Found hydrogenic basis function :  1 s   0.850
  | Found hydrogenic basis function :  2 p   3.700
  | Found hydrogenic basis function :  2 s   1.200
  | Found hydrogenic basis function :  3 d   7.000
  Species H                   : Missing cutoff potential type.
  Defaulting to exp(1/x)/(1-x)^2 type cutoff potential.
  Species H : No 'logarithmic' tag. Using default grid for free atom:
  | Default logarithmic grid data [bohr] : 0.1000E-03 0.1000E+03 0.1012E+01
  Species H : On-site basis accuracy parameter (for Gram-Schmidt orthonormalisation) not specified.
  Using default value basis_acc =  0.1000000E-03.
  Species H                   : Using default innermost maximum threshold i_radial=  2 for radial functions.
  Species H                   : Default cutoff onset for free atom density etc. : 0.40000000E+01 AA.
  Species H                   : Basic radial grid will be enhanced according to radial_multiplier =   2, to contain    49 grid points.
 
  Finished reading input file 'control.in'. Consistency checks are next.
 
  Target number of points in a grid batch is not set. Defaulting to  100
  Method for grid partitioning is not set. Defaulting to parallel hash+maxmin partitioning.
  Batch size limit is not set. Defaulting to    200
  By default, will store active basis functions for each batch.
  If in need of memory, prune_basis_once .false. can be used to disable this option.
  communication_type for Hartree potential was not specified.
  Defaulting to calc_hartree .
  Pulay mixer: Number of relevant iterations not set.
  Defaulting to    8 iterations.
  Pulay mixer: Number of initial linear mixing iterations not set.
  Defaulting to    0 iterations.
  Work space size for distributed Hartree potential not set.
  Defaulting to   0.200000E+03 MB.
  Algorithm-dependent basis array size parameters:
  | n_max_pulay                         :        8
  Calculation of forces was not defined in control.in. No forces will be calculated.
  Geometry relaxation not requested: no relaxation will be performed.
  No accuracy limit for integral partition fn. given. Defaulting to 0.1000E-14.
  No threshold value for u(r) in integrations given. Defaulting to 0.1000E-05.
  No accuracy for occupation numbers given. Defaulting to 0.1000E-07.
  No threshold value for occupation numbers given. Defaulting to 0.0000E+00.
  No accuracy for fermi level given. Defaulting to 0.1000E-19.
  Maximum # of iterations to find E_F not set. Defaulting to  200.
  Will not use alltoall communication since running on < 1024 CPUs.
  Threshold for basis singularities not set.
  Default threshold for basis singularities: 0.1000E-04
  partition_type (choice of integration weights) for integrals was not specified.
  | Using a version of the partition function of Stratmann and coworkers ('stratmann_smoother').
  | At each grid point, the set of atoms used to build the partition table is smoothly restricted to
  | only those atoms whose free-atom density would be non-zero at that grid point.
  Partitioning for Hartree potential was not defined. Using partition_type for integrals.
  | Adjusted default value of keyword multip_moments_threshold to:       0.10000000E-11
  | This value may affect high angular momentum components of the Hartree potential in periodic systems.
  No q(lm)/r^(l+1) cutoff set for long-range Hartree potential.
  | Using default value of  0.100000E-09 .
  | Verify using the multipole_threshold keyword.
  Defaulting to new monopole extrapolation.
  Density update method: automatic selection selected.
------------------------------------------------------------


------------------------------------------------------------
          Reading geometry description geometry.in.
------------------------------------------------------------
  Input structure read successfully.
  The structure contains        2 atoms,  and a total of          2.000 electrons.

  Input geometry:
  | No unit cell requested.
  | Atomic structure:
  |       Atom                x [A]            y [A]            z [A]
  |    1: Species H              0.000000         0.000000         0.000000
  |    2: Species H              0.000000         0.000000         0.540000
  |

  | The smallest distance between any two atoms is         0.54000000 AA.
  |
  | The first atom of this pair is atom number                      1 .
  | The second atom of this pair is atom number                     2 .

  Initial moments and charges:
  |  Atom   Moment         Charge        Species
  |     1  (Hund's rule)   0.000000E+00   H
  |     2  (Hund's rule)   0.000000E+00   H

  Structure-dependent array size parameters: 
  | Number of distinct atom types in initial rho :        1
  | Maximum number of distinct radial functions  :        7
  | Maximum number of basis functions            :       30
  | Number of Kohn-Sham states (occupied + empty):       11
------------------------------------------------------------

------------------------------------------------------------
          Preparing all fixed parts of the calculation.
------------------------------------------------------------
  Determining machine precision:
    2.225073858507201E-308
  Setting up grids for atomic and cluster calculations.

  Creating wave function, potential, and density for free atoms.

  Species: H

  List of occupied orbitals and eigenvalues:
    n    l              occ      energy [Ha]    energy [eV]
    1    0           1.0000        -0.238386        -6.4868

  Spin-polarized or charged system:
  Charge density initialized according to selected moments and charges.

  Creating spin-polarized density from free atoms.

  Species: H
  Charge:   0.000000
  applying Hund's rules ...

  List of occupied orbitals and eigenvalues:
    n    l      energy [Ha]    energy [eV]    occupation
  Spin-up
    1    0        -0.278991        -7.5917     1.00000000
  Spin-down
    1    0         0.090850         2.4721     0.00000000

  Creating fixed part of basis set: Ionic, confined, hydrogenic.
 
  H                    hydrogenic:
 
  List of hydrogenic basis orbitals: 
    n    l      effective z      eigenvalue [eV]  inner max. [A]     outer max. [A]     outer radius [A]   
    2    0         2.100000       -14.9965           0.193243           1.317208           5.373006
    2    1         3.500000       -41.6672           0.602369           0.602369           4.056063
    1    0         0.850000        -9.8292           0.624871           0.624871           5.373006
    2    1         3.700000       -46.5653           0.573622           0.573622           3.910002
    2    0         1.200000        -4.5995           0.334980           2.228188           5.505995
    3    2         7.000000       -74.0753           0.680699           0.680699           3.769201
 

  Adding cutoff potential to free-atom effective potential.
  Creating atomic-like basis functions for current effective potential.

  Species H                   :

  List of atomic basis orbitals and eigenvalues:
    n    l      energy [Ha]    energy [eV]    outer radius [A]
    1    0        -0.238386        -6.4868       5.373006

  Assembling full basis from fixed parts.
  | Species H :   atomic orbital   1 s accepted.
  | Species H :    hydro orbital   2 s accepted.
  | Species H :    hydro orbital   1 s accepted.
  | Species H :    hydro orbital   2 s accepted.
  | Species H :    hydro orbital   2 p accepted.
  | Species H :    hydro orbital   2 p accepted.
  | Species H :    hydro orbital   3 d accepted.
 
  Basis size parameters after reduction:
  | Total number of radial functions:        7
  | Total number of basis functions :       30
 
  Testing on-site integration grid accuracy.
  |  Species  Function  <phi|h_atom|phi> (log., in eV)  <phi|h_atom|phi> (rad., in eV)
           1        1                 -6.4870767962                 -6.4871688290
           1        2                 13.5032046589                 13.5028982997
           1        3                 32.8195184817                 32.8119941656
           1        4                 33.8513856511                 33.7670005767 ***
           1        5                 28.8544614965                 28.8544615203
           1        6                 59.6326952547                 59.6327656460
           1        7                 60.2719308513                 60.2719305949
 * Note: Onsite integrals marked "***" above are less accurate than
 * onsite_accuracy_threshold =    0.03000 eV. Usually, this is harmless.
 * When in doubt, tighten the "radial" and/or "radial_multiplier" flags to check.

  Preparing densities etc. for the partition functions (integrals / Hartree potential).

  Preparations completed.
  max(cpu_time)          :      0.078 s.
  Wall clock time (cpu1) :      0.079 s.
------------------------------------------------------------

------------------------------------------------------------
          Begin self-consistency loop: Initialization.

          Date     :  20220120, Time     :  153245.337
------------------------------------------------------------

  Initializing index lists of integration centers etc. from given atomic structure:
  | Number of centers in hartree potential         :         2
  | Number of centers in hartree multipole         :         2
  | Number of centers in electron density summation:         2
  | Number of centers in basis integrals           :         2
  | Number of centers in integrals                 :         2
  Using modified Scalapack Eigenvalue solver (ELPA)
  * Using 8 tasks for Scalapack Eigenvalue solver.
  Detailed listing of tasks and assigned k-points:
  (for non-periodic systems, the "k-point" denotes an internal label only)
   Task     0 k-point     1 on csky021
   Task     1 k-point     1 on csky021
   Task     2 k-point     1 on csky021
   Task     3 k-point     1 on csky021
   Task     4 k-point     1 on csky021
   Task     5 k-point     1 on csky021
   Task     6 k-point     1 on csky021
   Task     7 k-point     1 on csky021
  Tasks:     8 split into      4 X      2 BLACS grid
  Calculating blocksize based on n_basis =           30 max_nprow =            4 max_npcol =            2
  Scalapack blocksize set to:            4
  Required Scalapack workspace - INTEGER:            1 REAL:             1
  Partitioning the integration grid into batches with parallel hashing+maxmin method.
  | Number of batches:      445
  | Maximal batch size:     197
  | Minimal batch size:      49
  | Average batch size:      64.944
  | Standard deviation of batch sizes:      18.292

  Integration load balanced across     8 MPI tasks.
  Work distribution over tasks is as follows:
  Task     0 has       3589 integration points.
  Task     1 has       3684 integration points.
  Task     2 has       3581 integration points.
  Task     3 has       3589 integration points.
  Task     4 has       3589 integration points.
  Task     5 has       3618 integration points.
  Task     6 has       3609 integration points.
  Task     7 has       3641 integration points.
  Initializing partition tables, free-atom densities, potentials, etc. across the integration grid (initialize_grid_storage).
  | initialize_grid_storage: Actual outermost partition radius vs. multipole_radius_free
  | (-- VB: in principle, multipole_radius_free should be larger, hence this output)
  | Species        1: outer_partition_radius =              6.000000000000000 AA, multipole_radius_free =              6.071692442739658 AA.
  | Original list of interatomic distances with           2 x          2 entries is created.
  | Net number of integration points:    28900
  | of which are non-zero points    :    26094
  Obtaining max. number of non-zero basis functions in each batch (get_n_compute_maxes).
  | Maximal number of non-zero basis functions:       30 in task     0
  | Maximal number of non-zero basis functions:       30 in task     1
  | Maximal number of non-zero basis functions:       30 in task     2
  | Maximal number of non-zero basis functions:       30 in task     3
  | Maximal number of non-zero basis functions:       30 in task     4
  | Maximal number of non-zero basis functions:       30 in task     5
  | Maximal number of non-zero basis functions:       30 in task     6
  | Maximal number of non-zero basis functions:       30 in task     7
  Selecting the method for density update.
  Loop over occupied states selected for charge density update.
  Integrating Hamiltonian matrix: batch-based integration.
  Time summed over all CPUs for integration: real work        0.083 s, elapsed        0.090 s
  Integrating overlap matrix.
  Time summed over all CPUs for integration: real work        0.021 s, elapsed        0.026 s
  Deallocating overlap matrix.

  Updating Kohn-Sham eigenvalues, eigenvectors, occupation numbers, and Fermi level.
  Solving generalized eigenproblem
  Solving real symmetric generalised eigenvalue problem by standard ScaLAPACK.
  Transforming overlap matrix with ScaLAPACK and checking for singularities.
  : Overlap matrix is nonsingular, using Cholesky decomposition
  | Lowest eigenvalue:  0.878951E-04
  Factoring overlap matrix with Cholesky decomposition
  Using Cholesky factor for transformation
  Using 1-stage real ELPA solver
  Solving real symmetric generalised eigenvalue problem by standard ScaLAPACK.
  Using Cholesky factor for transformation
  Using 1-stage real ELPA solver
  Determining occupation numbers for Kohn-Sham eigenstates.
  | Chemical potential (Fermi level) in eV                 : -.27362039E-01
  | Error in electron count due to remaining E_F inaccuracy: 0.00000000E+00
  | Maximum occupation number of highest empty state:  0.00E+00

  Writing Kohn-Sham eigenvalues.

  Spin-up eigenvalues:

  State    Occupation    Eigenvalue [Ha]    Eigenvalue [eV]
      1       1.00000          -0.703289          -19.13746
      2       1.00000          -0.019856           -0.54031
      3       0.00000           0.000383            0.01042
      4       0.00000           0.128906            3.50772
      5       0.00000           0.204376            5.56135
      6       0.00000           0.204376            5.56135
      7       0.00000           0.274330            7.46489
      8       0.00000           0.519954           14.14868
      9       0.00000           0.689304           18.75692
     10       0.00000           0.689304           18.75692
     11       0.00000           0.703046           19.13086

  Spin-down eigenvalues:

  State    Occupation    Eigenvalue [Ha]    Eigenvalue [eV]
      1       0.00000           0.099170            2.69856
      2       0.00000           0.113859            3.09827
      3       0.00000           0.502710           13.67943
      4       0.00000           0.529325           14.40365
      5       0.00000           1.159322           31.54677
      6       0.00000           1.178893           32.07931
      7       0.00000           1.178893           32.07931
      8       0.00000           1.478059           40.22003
      9       0.00000           1.478059           40.22003
     10       0.00000           1.564985           42.58542
     11       0.00000           1.613438           43.90389

  Current spin moment of the entire structure :
  | N = N_up - N_down :    2.00
  | S                 :    1.00
  | J                 :    3.00

  Highest occupied state (VBM) at     -0.54030710 eV
  | Occupation number:      1.00000000
  | Spin channel:        1

  Lowest unoccupied state (CBM) at     0.01042334 eV
  | Occupation number:      0.00000000
  | Spin channel:        1

  Overall HOMO-LUMO gap:      0.55073044 eV.
  Calculating total energy contributions from superposition of free atom densities.

  Total energy components:
  | Sum of eigenvalues            :          -0.72314456 Ha         -19.67776479 eV
  | XC energy correction          :          -0.70806672 Ha         -19.26747575 eV
  | XC potential correction       :           0.91415987 Ha          24.87555559 eV
  | Free-atom electrostatic energy:          -0.11836883 Ha          -3.22097988 eV
  | Hartree energy correction     :           0.00000000 Ha           0.00000000 eV
  | van der Waals energy corr.    :           0.00000000 Ha           0.00000000 eV
  | Entropy correction            :           0.00000000 Ha           0.00000000 eV
  | ---------------------------
  | Total energy                  :          -0.63542025 Ha         -17.29066483 eV
  | Total energy, T -> 0          :          -0.63542025 Ha         -17.29066483 eV  <-- do not rely on this value for anything but (periodic) metals
  | Electronic free energy        :          -0.63542025 Ha         -17.29066483 eV

  Derived energy quantities:
  | Kinetic energy                :           1.26926244 Ha          34.53838842 eV
  | Electrostatic energy          :          -1.19661598 Ha         -32.56157750 eV
  | Energy correction for multipole
  | error in Hartree potential    :           0.00000000 Ha           0.00000000 eV
  | Sum of eigenvalues per atom                           :          -9.83888239 eV
  | Total energy (T->0) per atom                          :          -8.64533241 eV  <-- do not rely on this value for anything but (periodic) metals
  | Electronic free energy per atom                       :          -8.64533241 eV
  Initialize hartree_potential_storage
  Max. number of atoms included in rho_multipole:            2

  End scf initialization - timings             :  max(cpu_time)    wall_clock(cpu1)
  | Time for scf. initialization               :        0.041 s           0.041 s
  | Boundary condition initialization          :        0.000 s           0.000 s
  | Integration                                :        0.015 s           0.015 s
  | Solution of K.-S. eqns.                    :        0.007 s           0.008 s
  | Grid partitioning                          :        0.007 s           0.007 s
  | Preloading free-atom quantities on grid    :        0.004 s           0.003 s
  | Free-atom superposition energy             :        0.002 s           0.003 s
  | Total energy evaluation                    :        0.000 s           0.000 s
------------------------------------------------------------

------------------------------------------------------------
          Begin self-consistency iteration #    1

  Date     :  20220120, Time     :  153245.379
------------------------------------------------------------
  Evaluating new KS density.
  Integration grid: deviation in total charge (<rho> - N_e) =   1.220249E-07
  | <rho_up-rho_dn> = N_up-N_dn =      2.0000; <|rho_up-rho_dn|> =      2.1964
  Pulay mixing of updated and previous charge densities.

  Evaluating partitioned Hartree potential by multipole expansion.
  | Analytical far-field extrapolation by fixed multipoles:
  | Hartree multipole sum: apparent total charge =  -0.995816E-05
  Summing up the Hartree potential.
  Time summed over all CPUs for potential: real work        0.034 s, elapsed        0.034 s
  | RMS charge density error from multipole expansion :   0.837499E-03

  Integrating Hamiltonian matrix: batch-based integration.
  Time summed over all CPUs for integration: real work        0.066 s, elapsed        0.068 s

  Updating Kohn-Sham eigenvalues, eigenvectors, occupation numbers, and Fermi level.
  Solving generalized eigenproblem
  Solving real symmetric generalised eigenvalue problem by standard ScaLAPACK.
  Using Cholesky factor for transformation
  Using 1-stage real ELPA solver
  Solving real symmetric generalised eigenvalue problem by standard ScaLAPACK.
  Using Cholesky factor for transformation
  Using 1-stage real ELPA solver
  Determining occupation numbers for Kohn-Sham eigenstates.
  | Chemical potential (Fermi level) in eV                 : -.71748986E+01
  | Error in electron count due to remaining E_F inaccuracy: 0.00000000E+00
  | Maximum occupation number of highest empty state:  0.00E+00

  Writing Kohn-Sham eigenvalues.

  Spin-up eigenvalues:

  State    Occupation    Eigenvalue [Ha]    Eigenvalue [eV]
      1       1.00000          -0.562889          -15.31698
      2       0.00000           0.062475            1.70003
      3       0.00000           0.062798            1.70882
      4       0.00000           0.179183            4.87581
      5       0.00000           0.218838            5.95489
      6       0.00000           0.218838            5.95489
      7       0.00000           0.337712            9.18961
      8       0.00000           0.585571           15.93421
      9       0.00000           0.740776           20.15754
     10       0.00000           0.740776           20.15754
     11       0.00000           0.807568           21.97503

  Spin-down eigenvalues:

  State    Occupation    Eigenvalue [Ha]    Eigenvalue [eV]
      1       1.00000          -0.355601           -9.67639
      2       0.00000           0.079368            2.15971
      3       0.00000           0.088383            2.40503
      4       0.00000           0.246228            6.70020
      5       0.00000           0.329645            8.97009
      6       0.00000           0.329645            8.97009
      7       0.00000           0.392983           10.69360
      8       0.00000           0.699226           19.02690
      9       0.00000           0.827566           22.51921
     10       0.00000           0.827566           22.51921
     11       0.00000           0.880388           23.95658

  Current spin moment of the entire structure :
  | N = N_up - N_down :    0.00
  | S                 :    0.00
  | J                 :    1.00

  Highest occupied state (VBM) at     -9.67638957 eV
  | Occupation number:      1.00000000
  | Spin channel:        2

  Lowest unoccupied state (CBM) at     1.70002741 eV
  | Occupation number:      0.00000000
  | Spin channel:        1

  Overall HOMO-LUMO gap:     11.37641698 eV.

  Total energy components:
  | Sum of eigenvalues            :          -0.91848940 Ha         -24.99336825 eV
  | XC energy correction          :          -0.46995122 Ha         -12.78802333 eV
  | XC potential correction       :           0.60370043 Ha          16.42752462 eV
  | Free-atom electrostatic energy:          -0.11836883 Ha          -3.22097988 eV
  | Hartree energy correction     :           0.04568196 Ha           1.24306928 eV
  | van der Waals energy corr.    :           0.00000000 Ha           0.00000000 eV
  | Entropy correction            :           0.00000000 Ha           0.00000000 eV
  | ---------------------------
  | Total energy                  :          -0.85742707 Ha         -23.33177756 eV
  | Total energy, T -> 0          :          -0.85742707 Ha         -23.33177756 eV  <-- do not rely on this value for anything but (periodic) metals
  | Electronic free energy        :          -0.85742707 Ha         -23.33177756 eV

  Derived energy quantities:
  | Kinetic energy                :           0.87055239 Ha          23.68893578 eV
  | Electrostatic energy          :          -1.25802823 Ha         -34.23269000 eV
  | Energy correction for multipole
  | error in Hartree potential    :          -0.00012098 Ha          -0.00329190 eV
  | Sum of eigenvalues per atom                           :         -12.49668413 eV
  | Total energy (T->0) per atom                          :         -11.66588878 eV  <-- do not rely on this value for anything but (periodic) metals
  | Electronic free energy per atom                       :         -11.66588878 eV

  Self-consistency convergence accuracy:
  | Change of charge/spin density : 0.7847E-01 0.7847E-01
  | Change of sum of eigenvalues  : -.5316E+01 eV
  | Change of total energy        : -.6041E+01 eV

  End self-consistency iteration #     1       :  max(cpu_time)    wall_clock(cpu1)
  | Time for this iteration                    :        0.026 s           0.026 s
  | Charge density update                      :        0.007 s           0.006 s
  | Density mixing                             :        0.001 s           0.001 s
  | Hartree multipole update                   :        0.001 s           0.001 s
  | Hartree multipole summation                :        0.005 s           0.006 s
  | Integration                                :        0.009 s           0.008 s
  | Solution of K.-S. eqns.                    :        0.001 s           0.002 s
  | Total energy evaluation                    :        0.000 s           0.001 s
------------------------------------------------------------

------------------------------------------------------------
          Begin self-consistency iteration #    2

  Date     :  20220120, Time     :  153245.408
------------------------------------------------------------
  Evaluating new KS density.
  Integration grid: deviation in total charge (<rho> - N_e) =   7.321491E-08
  | <rho_up-rho_dn> = N_up-N_dn =     -2.0000; <|rho_up-rho_dn|> =      2.0000
  Pulay mixing of updated and previous charge densities.

  Evaluating partitioned Hartree potential by multipole expansion.
  | Analytical far-field extrapolation by fixed multipoles:
  | Hartree multipole sum: apparent total charge =  -0.968152E-05
  Summing up the Hartree potential.
  Time summed over all CPUs for potential: real work        0.033 s, elapsed        0.034 s
  | RMS charge density error from multipole expansion :   0.811608E-03

  Integrating Hamiltonian matrix: batch-based integration.
  Time summed over all CPUs for integration: real work        0.068 s, elapsed        0.070 s

  Updating Kohn-Sham eigenvalues, eigenvectors, occupation numbers, and Fermi level.
  Solving generalized eigenproblem
  Solving real symmetric generalised eigenvalue problem by standard ScaLAPACK.
  Using Cholesky factor for transformation
  Using 1-stage real ELPA solver
  Solving real symmetric generalised eigenvalue problem by standard ScaLAPACK.
  Using Cholesky factor for transformation
  Using 1-stage real ELPA solver
  Determining occupation numbers for Kohn-Sham eigenstates.
  | Chemical potential (Fermi level) in eV                 : -.10298264E+02
  | Error in electron count due to remaining E_F inaccuracy: 0.00000000E+00
  | Maximum occupation number of highest empty state:  0.00E+00

  Current spin moment of the entire structure :
  | N = N_up - N_down :    0.00
  | S                 :    0.00
  | J                 :    1.00

  Highest occupied state (VBM) at    -11.83840761 eV
  | Occupation number:      1.00000000
  | Spin channel:        2

  Lowest unoccupied state (CBM) at     1.35160671 eV
  | Occupation number:      0.00000000
  | Spin channel:        1

  Overall HOMO-LUMO gap:     13.19001432 eV.

  Total energy components:
  | Sum of eigenvalues            :          -1.13670780 Ha         -30.93139297 eV
  | XC energy correction          :          -0.59927147 Ha         -16.30700640 eV
  | XC potential correction       :           0.77332859 Ha          21.04334164 eV
  | Free-atom electrostatic energy:          -0.11836883 Ha          -3.22097988 eV
  | Hartree energy correction     :           0.03741764 Ha           1.01818568 eV
  | van der Waals energy corr.    :           0.00000000 Ha           0.00000000 eV
  | Entropy correction            :           0.00000000 Ha           0.00000000 eV
  | ---------------------------
  | Total energy                  :          -1.04360188 Ha         -28.39785193 eV
  | Total energy, T -> 0          :          -1.04360188 Ha         -28.39785193 eV  <-- do not rely on this value for anything but (periodic) metals
  | Electronic free energy        :          -1.04360188 Ha         -28.39785193 eV

  Derived energy quantities:
  | Kinetic energy                :           0.82463160 Ha          22.43936754 eV
  | Electrostatic energy          :          -1.26896201 Ha         -34.53021307 eV
  | Energy correction for multipole
  | error in Hartree potential    :          -0.00011417 Ha          -0.00310666 eV
  | Sum of eigenvalues per atom                           :         -15.46569648 eV
  | Total energy (T->0) per atom                          :         -14.19892596 eV  <-- do not rely on this value for anything but (periodic) metals
  | Electronic free energy per atom                       :         -14.19892596 eV

  Self-consistency convergence accuracy:
  | Change of charge/spin density : 0.1387E+00 0.3098E+00
  | Change of sum of eigenvalues  : -.5938E+01 eV
  | Change of total energy        : -.5066E+01 eV

  End self-consistency iteration #     2       :  max(cpu_time)    wall_clock(cpu1)
  | Time for this iteration                    :        0.025 s           0.025 s
  | Charge density update                      :        0.006 s           0.006 s
  | Density mixing                             :        0.001 s           0.001 s
  | Hartree multipole update                   :        0.001 s           0.001 s
  | Hartree multipole summation                :        0.005 s           0.005 s
  | Integration                                :        0.009 s           0.009 s
  | Solution of K.-S. eqns.                    :        0.001 s           0.002 s
  | Total energy evaluation                    :        0.000 s           0.000 s
------------------------------------------------------------

------------------------------------------------------------
          Begin self-consistency iteration #    3

  Date     :  20220120, Time     :  153245.438
------------------------------------------------------------
  Evaluating new KS density.
  Integration grid: deviation in total charge (<rho> - N_e) =   7.135210E-08
  | <rho_up-rho_dn> = N_up-N_dn =     -1.9237; <|rho_up-rho_dn|> =      1.9237
  Pulay mixing of updated and previous charge densities.

  Evaluating partitioned Hartree potential by multipole expansion.
  | Analytical far-field extrapolation by fixed multipoles:
  | Hartree multipole sum: apparent total charge =  -0.988224E-05
  Summing up the Hartree potential.
  Time summed over all CPUs for potential: real work        0.033 s, elapsed        0.034 s
  | RMS charge density error from multipole expansion :   0.738696E-03

  Integrating Hamiltonian matrix: batch-based integration.
  Time summed over all CPUs for integration: real work        0.066 s, elapsed        0.068 s

  Updating Kohn-Sham eigenvalues, eigenvectors, occupation numbers, and Fermi level.
  Solving generalized eigenproblem
  Solving real symmetric generalised eigenvalue problem by standard ScaLAPACK.
  Using Cholesky factor for transformation
  Using 1-stage real ELPA solver
  Solving real symmetric generalised eigenvalue problem by standard ScaLAPACK.
  Using Cholesky factor for transformation
  Using 1-stage real ELPA solver
  Determining occupation numbers for Kohn-Sham eigenstates.
  | Chemical potential (Fermi level) in eV                 : -.85051613E+01
  | Error in electron count due to remaining E_F inaccuracy: 0.00000000E+00
  | Maximum occupation number of highest empty state:  0.00E+00

  Current spin moment of the entire structure :
  | N = N_up - N_down :    0.00
  | S                 :    0.00
  | J                 :    1.00

  Highest occupied state (VBM) at    -10.79585674 eV
  | Occupation number:      1.00000000
  | Spin channel:        2

  Lowest unoccupied state (CBM) at     1.36492444 eV
  | Occupation number:      0.00000000
  | Spin channel:        1

  Overall HOMO-LUMO gap:     12.16078118 eV.

  Total energy components:
  | Sum of eigenvalues            :          -1.01543778 Ha         -27.63146797 eV
  | XC energy correction          :          -0.52389247 Ha         -14.25583943 eV
  | XC potential correction       :           0.67433021 Ha          18.34945854 eV
  | Free-atom electrostatic energy:          -0.11836883 Ha          -3.22097988 eV
  | Hartree energy correction     :           0.05094934 Ha           1.38640196 eV
  | van der Waals energy corr.    :           0.00000000 Ha           0.00000000 eV
  | Entropy correction            :           0.00000000 Ha           0.00000000 eV
  | ---------------------------
  | Total energy                  :          -0.93241955 Ha         -25.37242678 eV
  | Total energy, T -> 0          :          -0.93241955 Ha         -25.37242678 eV  <-- do not rely on this value for anything but (periodic) metals
  | Electronic free energy        :          -0.93241955 Ha         -25.37242678 eV

  Derived energy quantities:
  | Kinetic energy                :           0.82679227 Ha          22.49816249 eV
  | Electrostatic energy          :          -1.23531935 Ha         -33.61474983 eV
  | Energy correction for multipole
  | error in Hartree potential    :          -0.00010216 Ha          -0.00277985 eV
  | Sum of eigenvalues per atom                           :         -13.81573399 eV
  | Total energy (T->0) per atom                          :         -12.68621339 eV  <-- do not rely on this value for anything but (periodic) metals
  | Electronic free energy per atom                       :         -12.68621339 eV

  Self-consistency convergence accuracy:
  | Change of charge/spin density : 0.2216E+00 0.2805E+00
  | Change of sum of eigenvalues  : 0.3300E+01 eV
  | Change of total energy        : 0.3025E+01 eV

  End self-consistency iteration #     3       :  max(cpu_time)    wall_clock(cpu1)
  | Time for this iteration                    :        0.025 s           0.024 s
  | Charge density update                      :        0.007 s           0.006 s
  | Density mixing                             :        0.001 s           0.001 s
  | Hartree multipole update                   :        0.001 s           0.001 s
  | Hartree multipole summation                :        0.005 s           0.005 s
  | Integration                                :        0.009 s           0.009 s
  | Solution of K.-S. eqns.                    :        0.001 s           0.001 s
  | Total energy evaluation                    :        0.000 s           0.000 s
------------------------------------------------------------

------------------------------------------------------------
          Begin self-consistency iteration #    4

  Date     :  20220120, Time     :  153245.467
------------------------------------------------------------
  Evaluating new KS density.
  Integration grid: deviation in total charge (<rho> - N_e) =   7.181075E-08
  | <rho_up-rho_dn> = N_up-N_dn =     -1.9381; <|rho_up-rho_dn|> =      1.9381
  Pulay mixing of updated and previous charge densities.

  Evaluating partitioned Hartree potential by multipole expansion.
  | Analytical far-field extrapolation by fixed multipoles:
  | Hartree multipole sum: apparent total charge =  -0.103941E-04
  Summing up the Hartree potential.
  Time summed over all CPUs for potential: real work        0.033 s, elapsed        0.034 s
  | RMS charge density error from multipole expansion :   0.139244E-02

  Integrating Hamiltonian matrix: batch-based integration.
  Time summed over all CPUs for integration: real work        0.068 s, elapsed        0.070 s

  Updating Kohn-Sham eigenvalues, eigenvectors, occupation numbers, and Fermi level.
  Solving generalized eigenproblem
  Solving real symmetric generalised eigenvalue problem by standard ScaLAPACK.
  Using Cholesky factor for transformation
  Using 1-stage real ELPA solver
  Solving real symmetric generalised eigenvalue problem by standard ScaLAPACK.
  Using Cholesky factor for transformation
  Using 1-stage real ELPA solver
  Determining occupation numbers for Kohn-Sham eigenstates.
  | Chemical potential (Fermi level) in eV                 : -.91233656E+01
  | Error in electron count due to remaining E_F inaccuracy: 0.00000000E+00
  | Maximum occupation number of highest empty state:  0.00E+00

  Current spin moment of the entire structure :
  | N = N_up - N_down :    0.00
  | S                 :    0.00
  | J                 :    1.00

  Highest occupied state (VBM) at    -13.83517482 eV
  | Occupation number:      1.00000000
  | Spin channel:        2

  Lowest unoccupied state (CBM) at     0.02009747 eV
  | Occupation number:      0.00000000
  | Spin channel:        1

  Overall HOMO-LUMO gap:     13.85527229 eV.

  Total energy components:
  | Sum of eigenvalues            :          -1.13164955 Ha         -30.79375107 eV
  | XC energy correction          :          -0.50660727 Ha         -13.78548516 eV
  | XC potential correction       :           0.65191309 Ha          17.73945776 eV
  | Free-atom electrostatic energy:          -0.11836883 Ha          -3.22097988 eV
  | Hartree energy correction     :           0.13782571 Ha           3.75042835 eV
  | van der Waals energy corr.    :           0.00000000 Ha           0.00000000 eV
  | Entropy correction            :           0.00000000 Ha           0.00000000 eV
  | ---------------------------
  | Total energy                  :          -0.96688686 Ha         -26.31032999 eV
  | Total energy, T -> 0          :          -0.96688686 Ha         -26.31032999 eV  <-- do not rely on this value for anything but (periodic) metals
  | Electronic free energy        :          -0.96688686 Ha         -26.31032999 eV

  Derived energy quantities:
  | Kinetic energy                :           0.32034499 Ha           8.71703075 eV
  | Electrostatic energy          :          -0.78062458 Ha         -21.24187558 eV
  | Energy correction for multipole
  | error in Hartree potential    :           0.00019461 Ha           0.00529555 eV
  | Sum of eigenvalues per atom                           :         -15.39687554 eV
  | Total energy (T->0) per atom                          :         -13.15516500 eV  <-- do not rely on this value for anything but (periodic) metals
  | Electronic free energy per atom                       :         -13.15516500 eV

  Self-consistency convergence accuracy:
  | Change of charge/spin density : 0.1721E+00 0.2918E+00
  | Change of sum of eigenvalues  : -.3162E+01 eV
  | Change of total energy        : -.9379E+00 eV

  End self-consistency iteration #     4       :  max(cpu_time)    wall_clock(cpu1)
  | Time for this iteration                    :        0.027 s           0.025 s
  | Charge density update                      :        0.010 s           0.006 s
  | Density mixing                             :        0.001 s           0.001 s
  | Hartree multipole update                   :        0.001 s           0.002 s
  | Hartree multipole summation                :        0.005 s           0.004 s
  | Integration                                :        0.009 s           0.009 s
  | Solution of K.-S. eqns.                    :        0.001 s           0.002 s
  | Total energy evaluation                    :        0.000 s           0.001 s
------------------------------------------------------------

------------------------------------------------------------
          Begin self-consistency iteration #    5

  Date     :  20220120, Time     :  153245.496
------------------------------------------------------------
  Evaluating new KS density.
  Integration grid: deviation in total charge (<rho> - N_e) =   5.948536E-08
  | <rho_up-rho_dn> = N_up-N_dn =     -1.4862; <|rho_up-rho_dn|> =      1.4862
  Pulay mixing of updated and previous charge densities.

  Evaluating partitioned Hartree potential by multipole expansion.
  | Analytical far-field extrapolation by fixed multipoles:
  | Hartree multipole sum: apparent total charge =  -0.132881E-04
  Summing up the Hartree potential.
  Time summed over all CPUs for potential: real work        0.033 s, elapsed        0.034 s
  | RMS charge density error from multipole expansion :   0.683703E-02

  Integrating Hamiltonian matrix: batch-based integration.
  Time summed over all CPUs for integration: real work        0.070 s, elapsed        0.073 s

  Updating Kohn-Sham eigenvalues, eigenvectors, occupation numbers, and Fermi level.
  Solving generalized eigenproblem
  Solving real symmetric generalised eigenvalue problem by standard ScaLAPACK.
  Using Cholesky factor for transformation
  Using 1-stage real ELPA solver
  Solving real symmetric generalised eigenvalue problem by standard ScaLAPACK.
  Using Cholesky factor for transformation
  Using 1-stage real ELPA solver
  Determining occupation numbers for Kohn-Sham eigenstates.
  | Chemical potential (Fermi level) in eV                 : -.21215856E+02
  | Error in electron count due to remaining E_F inaccuracy: 0.00000000E+00
  | Maximum occupation number of highest empty state:  0.00E+00

  Current spin moment of the entire structure :
  | N = N_up - N_down :    0.00
  | S                 :    0.00
  | J                 :    1.00

  Highest occupied state (VBM) at    -23.02041548 eV
  | Occupation number:      1.00000000
  | Spin channel:        2

  Lowest unoccupied state (CBM) at    -2.19362314 eV
  | Occupation number:      0.00000000
  | Spin channel:        1

  Overall HOMO-LUMO gap:     20.82679234 eV.

  Total energy components:
  | Sum of eigenvalues            :          -1.73740894 Ha         -47.27730265 eV
  | XC energy correction          :          -0.70787869 Ha         -19.26235925 eV
  | XC potential correction       :           0.90970274 Ha          24.75427117 eV
  | Free-atom electrostatic energy:          -0.11836883 Ha          -3.22097988 eV
  | Hartree energy correction     :           0.13747399 Ha           3.74085761 eV
  | van der Waals energy corr.    :           0.00000000 Ha           0.00000000 eV
  | Entropy correction            :           0.00000000 Ha           0.00000000 eV
  | ---------------------------
  | Total energy                  :          -1.51647973 Ha         -41.26551300 eV
  | Total energy, T -> 0          :          -1.51647973 Ha         -41.26551300 eV  <-- do not rely on this value for anything but (periodic) metals
  | Electronic free energy        :          -1.51647973 Ha         -41.26551300 eV

  Derived energy quantities:
  | Kinetic energy                :          -1.80919847 Ha         -49.23079525 eV
  | Electrostatic energy          :           1.00059743 Ha          27.22764150 eV
  | Energy correction for multipole
  | error in Hartree potential    :           0.00106447 Ha           0.02896565 eV
  | Sum of eigenvalues per atom                           :         -23.63865133 eV
  | Total energy (T->0) per atom                          :         -20.63275650 eV  <-- do not rely on this value for anything but (periodic) metals
  | Electronic free energy per atom                       :         -20.63275650 eV

  Self-consistency convergence accuracy:
  | Change of charge/spin density : 0.3266E+00 0.2074E+00
  | Change of sum of eigenvalues  : -.1648E+02 eV
  | Change of total energy        : -.1496E+02 eV

  End self-consistency iteration #     5       :  max(cpu_time)    wall_clock(cpu1)
  | Time for this iteration                    :        0.028 s           0.025 s
  | Charge density update                      :        0.009 s           0.006 s
  | Density mixing                             :        0.001 s           0.001 s
  | Hartree multipole update                   :        0.001 s           0.002 s
  | Hartree multipole summation                :        0.005 s           0.004 s
  | Integration                                :        0.009 s           0.010 s
  | Solution of K.-S. eqns.                    :        0.001 s           0.001 s
  | Total energy evaluation                    :        0.000 s           0.000 s
------------------------------------------------------------

------------------------------------------------------------
          Begin self-consistency iteration #    6

  Date     :  20220120, Time     :  153245.523
------------------------------------------------------------
  Evaluating new KS density.
  Integration grid: deviation in total charge (<rho> - N_e) =   3.092809E-08
  | <rho_up-rho_dn> = N_up-N_dn =     -0.5776; <|rho_up-rho_dn|> =      1.0970
  Pulay mixing of updated and previous charge densities.

  Evaluating partitioned Hartree potential by multipole expansion.
  | Analytical far-field extrapolation by fixed multipoles:
  | Hartree multipole sum: apparent total charge =  -0.204740E-04
  Summing up the Hartree potential.
  Time summed over all CPUs for potential: real work        0.033 s, elapsed        0.034 s
  | RMS charge density error from multipole expansion :   0.144296E-01

  Integrating Hamiltonian matrix: batch-based integration.
  Time summed over all CPUs for integration: real work        0.070 s, elapsed        0.073 s

  Updating Kohn-Sham eigenvalues, eigenvectors, occupation numbers, and Fermi level.
  Solving generalized eigenproblem
  Solving real symmetric generalised eigenvalue problem by standard ScaLAPACK.
  Using Cholesky factor for transformation
  Using 1-stage real ELPA solver
  Solving real symmetric generalised eigenvalue problem by standard ScaLAPACK.
  Using Cholesky factor for transformation
  Using 1-stage real ELPA solver
  Determining occupation numbers for Kohn-Sham eigenstates.
  | Chemical potential (Fermi level) in eV                 : -.38515909E+02
  | Error in electron count due to remaining E_F inaccuracy: 0.00000000E+00
  | Maximum occupation number of highest empty state:  0.00E+00

  Current spin moment of the entire structure :
  | N = N_up - N_down :    0.00
  | S                 :    0.00
  | J                 :    1.00

  Highest occupied state (VBM) at    -41.75420205 eV
  | Occupation number:      1.00000000
  | Spin channel:        2

  Lowest unoccupied state (CBM) at    -7.55139753 eV
  | Occupation number:      0.00000000
  | Spin channel:        1

  Overall HOMO-LUMO gap:     34.20280452 eV.

  Total energy components:
  | Sum of eigenvalues            :          -3.10193286 Ha         -84.40788780 eV
  | XC energy correction          :          -1.08557326 Ha         -29.53995151 eV
  | XC potential correction       :           1.39799947 Ha          38.04150106 eV
  | Free-atom electrostatic energy:          -0.11836883 Ha          -3.22097988 eV
  | Hartree energy correction     :          -0.69352461 Ha         -18.87176471 eV
  | van der Waals energy corr.    :           0.00000000 Ha           0.00000000 eV
  | Entropy correction            :           0.00000000 Ha           0.00000000 eV
  | ---------------------------
  | Total energy                  :          -3.60140010 Ha         -97.99908284 eV
  | Total energy, T -> 0          :          -3.60140010 Ha         -97.99908284 eV  <-- do not rely on this value for anything but (periodic) metals
  | Electronic free energy        :          -3.60140010 Ha         -97.99908284 eV

  Derived energy quantities:
  | Kinetic energy                :          -7.08839640 Ha        -192.88507984 eV
  | Electrostatic energy          :           4.57256956 Ha         124.42594851 eV
  | Energy correction for multipole
  | error in Hartree potential    :           0.00218429 Ha           0.05943751 eV
  | Sum of eigenvalues per atom                           :         -42.20394390 eV
  | Total energy (T->0) per atom                          :         -48.99954142 eV  <-- do not rely on this value for anything but (periodic) metals
  | Electronic free energy per atom                       :         -48.99954142 eV

  Self-consistency convergence accuracy:
  | Change of charge/spin density : 0.9960E+00 0.2755E+00
  | Change of sum of eigenvalues  : -.3713E+02 eV
  | Change of total energy        : -.5673E+02 eV

  End self-consistency iteration #     6       :  max(cpu_time)    wall_clock(cpu1)
  | Time for this iteration                    :        0.026 s           0.025 s
  | Charge density update                      :        0.006 s           0.006 s
  | Density mixing                             :        0.002 s           0.001 s
  | Hartree multipole update                   :        0.001 s           0.002 s
  | Hartree multipole summation                :        0.005 s           0.004 s
  | Integration                                :        0.009 s           0.010 s
  | Solution of K.-S. eqns.                    :        0.001 s           0.001 s
  | Total energy evaluation                    :        0.000 s           0.001 s
------------------------------------------------------------

------------------------------------------------------------
          Begin self-consistency iteration #    7

  Date     :  20220120, Time     :  153245.550
------------------------------------------------------------
  Evaluating new KS density.
  Integration grid: deviation in total charge (<rho> - N_e) =   1.543329E-08
  | <rho_up-rho_dn> = N_up-N_dn =     -0.2188; <|rho_up-rho_dn|> =      1.7551
  Pulay mixing of updated and previous charge densities.

  Evaluating partitioned Hartree potential by multipole expansion.
  | Analytical far-field extrapolation by fixed multipoles:
  | Hartree multipole sum: apparent total charge =  -0.183071E-04
  Summing up the Hartree potential.
  Time summed over all CPUs for potential: real work        0.032 s, elapsed        0.033 s
  | RMS charge density error from multipole expansion :   0.125077E-01

  Integrating Hamiltonian matrix: batch-based integration.
  Time summed over all CPUs for integration: real work        0.070 s, elapsed        0.072 s

  Updating Kohn-Sham eigenvalues, eigenvectors, occupation numbers, and Fermi level.
  Solving generalized eigenproblem
  Solving real symmetric generalised eigenvalue problem by standard ScaLAPACK.
  Using Cholesky factor for transformation
  Using 1-stage real ELPA solver
  Solving real symmetric generalised eigenvalue problem by standard ScaLAPACK.
  Using Cholesky factor for transformation
  Using 1-stage real ELPA solver
  Determining occupation numbers for Kohn-Sham eigenstates.
  | Chemical potential (Fermi level) in eV                 : -.33356523E+02
  | Error in electron count due to remaining E_F inaccuracy: 0.00000000E+00
  | Maximum occupation number of highest empty state:  0.00E+00

  Current spin moment of the entire structure :
  | N = N_up - N_down :    0.00
  | S                 :    0.00
  | J                 :    1.00

  Highest occupied state (VBM) at    -36.21786005 eV
  | Occupation number:      1.00000000
  | Spin channel:        2

  Lowest unoccupied state (CBM) at    -5.62349646 eV
  | Occupation number:      0.00000000
  | Spin channel:        1

  Overall HOMO-LUMO gap:     30.59436359 eV.

  Total energy components:
  | Sum of eigenvalues            :          -2.69656603 Ha         -73.37729514 eV
  | XC energy correction          :          -0.98154905 Ha         -26.70930868 eV
  | XC potential correction       :           1.26350670 Ha          34.38176658 eV
  | Free-atom electrostatic energy:          -0.11836883 Ha          -3.22097988 eV
  | Hartree energy correction     :          -0.37428564 Ha         -10.18483034 eV
  | van der Waals energy corr.    :           0.00000000 Ha           0.00000000 eV
  | Entropy correction            :           0.00000000 Ha           0.00000000 eV
  | ---------------------------
  | Total energy                  :          -2.90726286 Ha         -79.11064745 eV
  | Total energy, T -> 0          :          -2.90726286 Ha         -79.11064745 eV  <-- do not rely on this value for anything but (periodic) metals
  | Electronic free energy        :          -2.90726286 Ha         -79.11064745 eV

  Derived energy quantities:
  | Kinetic energy                :          -5.45189392 Ha        -148.35358159 eV
  | Electrostatic energy          :           3.52618011 Ha          95.95224282 eV
  | Energy correction for multipole
  | error in Hartree potential    :           0.00191383 Ha           0.05207810 eV
  | Sum of eigenvalues per atom                           :         -36.68864757 eV
  | Total energy (T->0) per atom                          :         -39.55532372 eV  <-- do not rely on this value for anything but (periodic) metals
  | Electronic free energy per atom                       :         -39.55532372 eV

  Self-consistency convergence accuracy:
  | Change of charge/spin density : 0.1996E+01 0.6393E+00
  | Change of sum of eigenvalues  : 0.1103E+02 eV
  | Change of total energy        : 0.1889E+02 eV

  End self-consistency iteration #     7       :  max(cpu_time)    wall_clock(cpu1)
  | Time for this iteration                    :        0.026 s           0.025 s
  | Charge density update                      :        0.006 s           0.006 s
  | Density mixing                             :        0.002 s           0.001 s
  | Hartree multipole update                   :        0.001 s           0.002 s
  | Hartree multipole summation                :        0.004 s           0.004 s
  | Integration                                :        0.009 s           0.009 s
  | Solution of K.-S. eqns.                    :        0.001 s           0.002 s
  | Total energy evaluation                    :        0.000 s           0.001 s
------------------------------------------------------------

------------------------------------------------------------
          Begin self-consistency iteration #    8

  Date     :  20220120, Time     :  153245.579
------------------------------------------------------------
  Evaluating new KS density.
  Integration grid: deviation in total charge (<rho> - N_e) =   1.712436E-08
  | <rho_up-rho_dn> = N_up-N_dn =     -0.2651; <|rho_up-rho_dn|> =      1.5478
  Pulay mixing of updated and previous charge densities.

  Evaluating partitioned Hartree potential by multipole expansion.
  | Analytical far-field extrapolation by fixed multipoles:
  | Hartree multipole sum: apparent total charge =  -0.121242E-04
  Summing up the Hartree potential.
  Time summed over all CPUs for potential: real work        0.032 s, elapsed        0.033 s
  | RMS charge density error from multipole expansion :   0.874660E-02

  Integrating Hamiltonian matrix: batch-based integration.
  Time summed over all CPUs for integration: real work        0.071 s, elapsed        0.073 s

  Updating Kohn-Sham eigenvalues, eigenvectors, occupation numbers, and Fermi level.
  Solving generalized eigenproblem
  Solving real symmetric generalised eigenvalue problem by standard ScaLAPACK.
  Using Cholesky factor for transformation
  Using 1-stage real ELPA solver
  Solving real symmetric generalised eigenvalue problem by standard ScaLAPACK.
  Using Cholesky factor for transformation
  Using 1-stage real ELPA solver
  Determining occupation numbers for Kohn-Sham eigenstates.
  | Chemical potential (Fermi level) in eV                 : -.22864705E+02
  | Error in electron count due to remaining E_F inaccuracy: 0.00000000E+00
  | Maximum occupation number of highest empty state:  0.00E+00

  Current spin moment of the entire structure :
  | N = N_up - N_down :    0.00
  | S                 :    0.00
  | J                 :    1.00

  Highest occupied state (VBM) at    -25.11591505 eV
  | Occupation number:      1.00000000
  | Spin channel:        2

  Lowest unoccupied state (CBM) at    -2.22584968 eV
  | Occupation number:      0.00000000
  | Spin channel:        1

  Overall HOMO-LUMO gap:     22.89006537 eV.

  Total energy components:
  | Sum of eigenvalues            :          -1.87945217 Ha         -51.14249564 eV
  | XC energy correction          :          -0.80064821 Ha         -21.78674632 eV
  | XC potential correction       :           1.02936502 Ha          28.01044724 eV
  | Free-atom electrostatic energy:          -0.11836883 Ha          -3.22097988 eV
  | Hartree energy correction     :           0.01689446 Ha           0.45972177 eV
  | van der Waals energy corr.    :           0.00000000 Ha           0.00000000 eV
  | Entropy correction            :           0.00000000 Ha           0.00000000 eV
  | ---------------------------
  | Total energy                  :          -1.75220974 Ha         -47.68005283 eV
  | Total energy, T -> 0          :          -1.75220974 Ha         -47.68005283 eV  <-- do not rely on this value for anything but (periodic) metals
  | Electronic free energy        :          -1.75220974 Ha         -47.68005283 eV

  Derived energy quantities:
  | Kinetic energy                :          -2.46288364 Ha         -67.01847364 eV
  | Electrostatic energy          :           1.51132211 Ha          41.12516712 eV
  | Energy correction for multipole
  | error in Hartree potential    :           0.00149019 Ha           0.04055022 eV
  | Sum of eigenvalues per atom                           :         -25.57124782 eV
  | Total energy (T->0) per atom                          :         -23.84002642 eV  <-- do not rely on this value for anything but (periodic) metals
  | Electronic free energy per atom                       :         -23.84002642 eV

  Self-consistency convergence accuracy:
  | Change of charge/spin density : 0.1742E+01 0.5491E+00
  | Change of sum of eigenvalues  : 0.2223E+02 eV
  | Change of total energy        : 0.3143E+02 eV

  End self-consistency iteration #     8       :  max(cpu_time)    wall_clock(cpu1)
  | Time for this iteration                    :        0.026 s           0.025 s
  | Charge density update                      :        0.006 s           0.005 s
  | Density mixing                             :        0.002 s           0.002 s
  | Hartree multipole update                   :        0.001 s           0.002 s
  | Hartree multipole summation                :        0.004 s           0.004 s
  | Integration                                :        0.009 s           0.009 s
  | Solution of K.-S. eqns.                    :        0.001 s           0.002 s
  | Total energy evaluation                    :        0.000 s           0.001 s
------------------------------------------------------------

------------------------------------------------------------
          Begin self-consistency iteration #    9

  Date     :  20220120, Time     :  153245.608
------------------------------------------------------------
  Evaluating new KS density.
  Integration grid: deviation in total charge (<rho> - N_e) =   1.024950E-08
  | <rho_up-rho_dn> = N_up-N_dn =     -0.1744; <|rho_up-rho_dn|> =      1.0960
  Pulay mixing of updated and previous charge densities.

  Evaluating partitioned Hartree potential by multipole expansion.
  | Analytical far-field extrapolation by fixed multipoles:
  | Hartree multipole sum: apparent total charge =   0.810748E-05
  Summing up the Hartree potential.
  Time summed over all CPUs for potential: real work        0.033 s, elapsed        0.034 s
  | RMS charge density error from multipole expansion :   0.655427E-02

  Integrating Hamiltonian matrix: batch-based integration.
  Time summed over all CPUs for integration: real work        0.062 s, elapsed        0.064 s

  Updating Kohn-Sham eigenvalues, eigenvectors, occupation numbers, and Fermi level.
  Solving generalized eigenproblem
  Solving real symmetric generalised eigenvalue problem by standard ScaLAPACK.
  Using Cholesky factor for transformation
  Using 1-stage real ELPA solver
  Solving real symmetric generalised eigenvalue problem by standard ScaLAPACK.
  Using Cholesky factor for transformation
  Using 1-stage real ELPA solver
  Determining occupation numbers for Kohn-Sham eigenstates.
  | Chemical potential (Fermi level) in eV                 : 0.16921347E+01
  | Error in electron count due to remaining E_F inaccuracy: 0.00000000E+00
  | Maximum occupation number of highest empty state:  0.00E+00

  Current spin moment of the entire structure :
  | N = N_up - N_down :    0.00
  | S                 :    0.00
  | J                 :    1.00

  Highest occupied state (VBM) at     -0.22366627 eV
  | Occupation number:      1.00000000
  | Spin channel:        2

  Lowest unoccupied state (CBM) at     2.76248864 eV
  | Occupation number:      0.00000000
  | Spin channel:        2

  Overall HOMO-LUMO gap:      2.98615491 eV.

  Total energy components:
  | Sum of eigenvalues            :          -0.02253565 Ha          -0.61322634 eV
  | XC energy correction          :          -1.40765264 Ha         -38.30417719 eV
  | XC potential correction       :           1.81561624 Ha          49.40543148 eV
  | Free-atom electrostatic energy:          -0.11836883 Ha          -3.22097988 eV
  | Hartree energy correction     :          -1.68806227 Ha         -45.93451149 eV
  | van der Waals energy corr.    :           0.00000000 Ha           0.00000000 eV
  | Entropy correction            :           0.00000000 Ha           0.00000000 eV
  | ---------------------------
  | Total energy                  :          -1.42100316 Ha         -38.66746341 eV
  | Total energy, T -> 0          :          -1.42100316 Ha         -38.66746341 eV  <-- do not rely on this value for anything but (periodic) metals
  | Electronic free energy        :          -1.42100316 Ha         -38.66746341 eV

  Derived energy quantities:
  | Kinetic energy                :           2.61920502 Ha          71.27219490 eV
  | Electrostatic energy          :          -2.63255554 Ha         -71.63548113 eV
  | Energy correction for multipole
  | error in Hartree potential    :          -0.00030227 Ha          -0.00822518 eV
  | Sum of eigenvalues per atom                           :          -0.30661317 eV
  | Total energy (T->0) per atom                          :         -19.33373171 eV  <-- do not rely on this value for anything but (periodic) metals
  | Electronic free energy per atom                       :         -19.33373171 eV

  Self-consistency convergence accuracy:
  | Change of charge/spin density : 0.1189E+01 0.3898E+00
  | Change of sum of eigenvalues  : 0.5053E+02 eV
  | Change of total energy        : 0.9013E+01 eV

  End self-consistency iteration #     9       :  max(cpu_time)    wall_clock(cpu1)
  | Time for this iteration                    :        0.026 s           0.025 s
  | Charge density update                      :        0.007 s           0.006 s
  | Density mixing                             :        0.002 s           0.002 s
  | Hartree multipole update                   :        0.001 s           0.001 s
  | Hartree multipole summation                :        0.005 s           0.005 s
  | Integration                                :        0.008 s           0.008 s
  | Solution of K.-S. eqns.                    :        0.001 s           0.002 s
  | Total energy evaluation                    :        0.000 s           0.001 s
------------------------------------------------------------

------------------------------------------------------------
          Begin self-consistency iteration #   10

  Date     :  20220120, Time     :  153245.638
------------------------------------------------------------
  Evaluating new KS density.
  Integration grid: deviation in total charge (<rho> - N_e) =   4.716565E-10
  | <rho_up-rho_dn> = N_up-N_dn =      0.0335; <|rho_up-rho_dn|> =      0.7350
  Pulay mixing of updated and previous charge densities.

  Evaluating partitioned Hartree potential by multipole expansion.
  | Analytical far-field extrapolation by fixed multipoles:
  | Hartree multipole sum: apparent total charge =   0.792139E-05
  Summing up the Hartree potential.
  Time summed over all CPUs for potential: real work        0.033 s, elapsed        0.034 s
  | RMS charge density error from multipole expansion :   0.645454E-02

  Integrating Hamiltonian matrix: batch-based integration.
  Time summed over all CPUs for integration: real work        0.063 s, elapsed        0.065 s

  Updating Kohn-Sham eigenvalues, eigenvectors, occupation numbers, and Fermi level.
  Solving generalized eigenproblem
  Solving real symmetric generalised eigenvalue problem by standard ScaLAPACK.
  Using Cholesky factor for transformation
  Using 1-stage real ELPA solver
  Solving real symmetric generalised eigenvalue problem by standard ScaLAPACK.
  Using Cholesky factor for transformation
  Using 1-stage real ELPA solver
  Determining occupation numbers for Kohn-Sham eigenstates.
  | Chemical potential (Fermi level) in eV                 : 0.15218846E+01
  | Error in electron count due to remaining E_F inaccuracy: 0.00000000E+00
  | Maximum occupation number of highest empty state:  0.00E+00

  Current spin moment of the entire structure :
  | N = N_up - N_down :    0.00
  | S                 :    0.00
  | J                 :    1.00

  Highest occupied state (VBM) at     -0.36557063 eV
  | Occupation number:      1.00000000
  | Spin channel:        2

  Lowest unoccupied state (CBM) at     2.73623623 eV
  | Occupation number:      0.00000000
  | Spin channel:        2

  Overall HOMO-LUMO gap:      3.10180686 eV.

  Total energy components:
  | Sum of eigenvalues            :          -0.03402175 Ha          -0.92577904 eV
  | XC energy correction          :          -1.39275468 Ha         -37.89878306 eV
  | XC potential correction       :           1.79625601 Ha          48.87861282 eV
  | Free-atom electrostatic energy:          -0.11836883 Ha          -3.22097988 eV
  | Hartree energy correction     :          -1.65466682 Ha         -45.02577493 eV
  | van der Waals energy corr.    :           0.00000000 Ha           0.00000000 eV
  | Entropy correction            :           0.00000000 Ha           0.00000000 eV
  | ---------------------------
  | Total energy                  :          -1.40355608 Ha         -38.19270408 eV
  | Total energy, T -> 0          :          -1.40355608 Ha         -38.19270408 eV  <-- do not rely on this value for anything but (periodic) metals
  | Electronic free energy        :          -1.40355608 Ha         -38.19270408 eV

  Derived energy quantities:
  | Kinetic energy                :           2.61003276 Ha          71.02260495 eV
  | Electrostatic energy          :          -2.62083416 Ha         -71.31652597 eV
  | Energy correction for multipole
  | error in Hartree potential    :          -0.00029261 Ha          -0.00796236 eV
  | Sum of eigenvalues per atom                           :          -0.46288952 eV
  | Total energy (T->0) per atom                          :         -19.09635204 eV  <-- do not rely on this value for anything but (periodic) metals
  | Electronic free energy per atom                       :         -19.09635204 eV

  Self-consistency convergence accuracy:
  | Change of charge/spin density : 0.7702E+00 0.2435E+00
  | Change of sum of eigenvalues  : -.3126E+00 eV
  | Change of total energy        : 0.4748E+00 eV

  End self-consistency iteration #    10       :  max(cpu_time)    wall_clock(cpu1)
  | Time for this iteration                    :        0.025 s           0.025 s
  | Charge density update                      :        0.007 s           0.006 s
  | Density mixing                             :        0.002 s           0.002 s
  | Hartree multipole update                   :        0.001 s           0.001 s
  | Hartree multipole summation                :        0.004 s           0.005 s
  | Integration                                :        0.008 s           0.008 s
  | Solution of K.-S. eqns.                    :        0.001 s           0.001 s
  | Total energy evaluation                    :        0.000 s           0.000 s
------------------------------------------------------------

------------------------------------------------------------
          Begin self-consistency iteration #   11

  Date     :  20220120, Time     :  153245.668
------------------------------------------------------------
  Evaluating new KS density.
  Integration grid: deviation in total charge (<rho> - N_e) =   1.477050E-09
  | <rho_up-rho_dn> = N_up-N_dn =     -0.0007; <|rho_up-rho_dn|> =      0.7230
  Pulay mixing of updated and previous charge densities.

  Evaluating partitioned Hartree potential by multipole expansion.
  | Analytical far-field extrapolation by fixed multipoles:
  | Hartree multipole sum: apparent total charge =   0.892063E-05
  Summing up the Hartree potential.
  Time summed over all CPUs for potential: real work        0.033 s, elapsed        0.034 s
  | RMS charge density error from multipole expansion :   0.682511E-02

  Integrating Hamiltonian matrix: batch-based integration.
  Time summed over all CPUs for integration: real work        0.062 s, elapsed        0.064 s

  Updating Kohn-Sham eigenvalues, eigenvectors, occupation numbers, and Fermi level.
  Solving generalized eigenproblem
  Solving real symmetric generalised eigenvalue problem by standard ScaLAPACK.
  Using Cholesky factor for transformation
  Using 1-stage real ELPA solver
  Solving real symmetric generalised eigenvalue problem by standard ScaLAPACK.
  Using Cholesky factor for transformation
  Using 1-stage real ELPA solver
  Determining occupation numbers for Kohn-Sham eigenstates.
  | Chemical potential (Fermi level) in eV                 : 0.20769778E+01
  | Error in electron count due to remaining E_F inaccuracy: 0.00000000E+00
  | Maximum occupation number of highest empty state:  0.00E+00

  Current spin moment of the entire structure :
  | N = N_up - N_down :    0.00
  | S                 :    0.00
  | J                 :    1.00

  Highest occupied state (VBM) at      0.15939584 eV
  | Occupation number:      1.00000000
  | Spin channel:        2
 * WARNING: The VBM is higher than the internal energy zero!

  Lowest unoccupied state (CBM) at     2.77261055 eV
  | Occupation number:      0.00000000
  | Spin channel:        2

  Overall HOMO-LUMO gap:      2.61321472 eV.

  Total energy components:
  | Sum of eigenvalues            :           0.00610108 Ha           0.16601886 eV
  | XC energy correction          :          -1.45612196 Ha         -39.62309454 eV
  | XC potential correction       :           1.87857120 Ha          51.11852327 eV
  | Free-atom electrostatic energy:          -0.11836883 Ha          -3.22097988 eV
  | Hartree energy correction     :          -1.79397631 Ha         -48.81657922 eV
  | van der Waals energy corr.    :           0.00000000 Ha           0.00000000 eV
  | Entropy correction            :           0.00000000 Ha           0.00000000 eV
  | ---------------------------
  | Total energy                  :          -1.48379482 Ha         -40.37611150 eV
  | Total energy, T -> 0          :          -1.48379482 Ha         -40.37611150 eV  <-- do not rely on this value for anything but (periodic) metals
  | Electronic free energy        :          -1.48379482 Ha         -40.37611150 eV

  Derived energy quantities:
  | Kinetic energy                :           2.63271452 Ha          71.63980721 eV
  | Electrostatic energy          :          -2.66038739 Ha         -72.39282418 eV
  | Energy correction for multipole
  | error in Hartree potential    :          -0.00030912 Ha          -0.00841149 eV
  | Sum of eigenvalues per atom                           :           0.08300943 eV
  | Total energy (T->0) per atom                          :         -20.18805575 eV  <-- do not rely on this value for anything but (periodic) metals
[...]
  | Change of sum of eigenvalues  : -.6864E-04 eV
  | Change of total energy        : -.5311E-08 eV

  End self-consistency iteration #    29       :  max(cpu_time)    wall_clock(cpu1)
  | Time for this iteration                    :        0.026 s           0.025 s
  | Charge density update                      :        0.006 s           0.005 s
  | Density mixing                             :        0.002 s           0.002 s
  | Hartree multipole update                   :        0.001 s           0.002 s
  | Hartree multipole summation                :        0.004 s           0.004 s
  | Integration                                :        0.010 s           0.010 s
  | Solution of K.-S. eqns.                    :        0.001 s           0.001 s
  | Total energy evaluation                    :        0.000 s           0.000 s
------------------------------------------------------------

------------------------------------------------------------
          Begin self-consistency iteration #   30

  Date     :  20220120, Time     :  153246.239
------------------------------------------------------------
  Evaluating new KS density.
  Integration grid: deviation in total charge (<rho> - N_e) =   5.373479E-14
  | <rho_up-rho_dn> = N_up-N_dn =      0.0000; <|rho_up-rho_dn|> =      0.0000
  Pulay mixing of updated and previous charge densities.

  Evaluating partitioned Hartree potential by multipole expansion.
  | Analytical far-field extrapolation by fixed multipoles:
  | Hartree multipole sum: apparent total charge =   0.163045E-05
  Summing up the Hartree potential.
  Time summed over all CPUs for potential: real work        0.033 s, elapsed        0.034 s
  | RMS charge density error from multipole expansion :   0.187898E-02

  Integrating Hamiltonian matrix: batch-based integration.
  Time summed over all CPUs for integration: real work        0.073 s, elapsed        0.076 s

  Updating Kohn-Sham eigenvalues, eigenvectors, occupation numbers, and Fermi level.
  Solving generalized eigenproblem
  Solving real symmetric generalised eigenvalue problem by standard ScaLAPACK.
  Using Cholesky factor for transformation
  Using 1-stage real ELPA solver
  Solving real symmetric generalised eigenvalue problem by standard ScaLAPACK.
  Using Cholesky factor for transformation
  Using 1-stage real ELPA solver
  Determining occupation numbers for Kohn-Sham eigenstates.
  | Chemical potential (Fermi level) in eV                 : -.98307557E+01
  | Error in electron count due to remaining E_F inaccuracy: 0.00000000E+00
  | Maximum occupation number of highest empty state:  0.00E+00

  Current spin moment of the entire structure :
  | N = N_up - N_down :    0.00
  | S                 :    0.00
  | J                 :    1.00

  Highest occupied state (VBM) at    -11.51345480 eV
  | Occupation number:      1.00000000
  | Spin channel:        2

  Lowest unoccupied state (CBM) at     1.16577205 eV
  | Occupation number:      0.00000000
  | Spin channel:        2

  Overall HOMO-LUMO gap:     12.67922685 eV.

  Total energy components:
  | Sum of eigenvalues            :          -0.84622338 Ha         -23.02690970 eV
  | XC energy correction          :          -0.76544494 Ha         -20.82881659 eV
  | XC potential correction       :           0.98239177 Ha          26.73224029 eV
  | Free-atom electrostatic energy:          -0.11836883 Ha          -3.22097988 eV
  | Hartree energy correction     :          -0.37281710 Ha         -10.14486940 eV
  | van der Waals energy corr.    :           0.00000000 Ha           0.00000000 eV
  | Entropy correction            :           0.00000000 Ha           0.00000000 eV
  | ---------------------------
  | Total energy                  :          -1.12046248 Ha         -30.48933527 eV
  | Total energy, T -> 0          :          -1.12046248 Ha         -30.48933527 eV  <-- do not rely on this value for anything but (periodic) metals
  | Electronic free energy        :          -1.12046248 Ha         -30.48933527 eV

  Derived energy quantities:
  | Kinetic energy                :           1.38846458 Ha          37.78204353 eV
  | Electrostatic energy          :          -1.74348212 Ha         -47.44256221 eV
  | Energy correction for multipole
  | error in Hartree potential    :           0.00000167 Ha           0.00004535 eV
  | Sum of eigenvalues per atom                           :         -11.51345485 eV
  | Total energy (T->0) per atom                          :         -15.24466763 eV  <-- do not rely on this value for anything but (periodic) metals
  | Electronic free energy per atom                       :         -15.24466763 eV

  Self-consistency convergence accuracy:
  | Change of charge/spin density : 0.5759E-06 0.1941E-06
  | Change of sum of eigenvalues  : 0.2626E-04 eV
  | Change of total energy        : -.1423E-09 eV

  End self-consistency iteration #    30       :  max(cpu_time)    wall_clock(cpu1)
  | Time for this iteration                    :        0.027 s           0.026 s
  | Charge density update                      :        0.007 s           0.005 s
  | Density mixing                             :        0.002 s           0.002 s
  | Hartree multipole update                   :        0.001 s           0.002 s
  | Hartree multipole summation                :        0.005 s           0.004 s
  | Integration                                :        0.010 s           0.010 s
  | Solution of K.-S. eqns.                    :        0.001 s           0.001 s
  | Total energy evaluation                    :        0.000 s           0.000 s
------------------------------------------------------------

------------------------------------------------------------
          Begin self-consistency iteration #   31

  Date     :  20220120, Time     :  153246.269
------------------------------------------------------------
  Evaluating new KS density.
  Integration grid: deviation in total charge (<rho> - N_e) =   3.907985E-14
  | <rho_up-rho_dn> = N_up-N_dn =     -0.0000; <|rho_up-rho_dn|> =      0.0000
  Pulay mixing of updated and previous charge densities.

  Evaluating partitioned Hartree potential by multipole expansion.
  | Analytical far-field extrapolation by fixed multipoles:
  | Hartree multipole sum: apparent total charge =   0.163044E-05
  Summing up the Hartree potential.
  Time summed over all CPUs for potential: real work        0.033 s, elapsed        0.034 s
  | RMS charge density error from multipole expansion :   0.187898E-02

  Integrating Hamiltonian matrix: batch-based integration.
  Time summed over all CPUs for integration: real work        0.073 s, elapsed        0.075 s

  Updating Kohn-Sham eigenvalues, eigenvectors, occupation numbers, and Fermi level.
  Solving generalized eigenproblem
  Solving real symmetric generalised eigenvalue problem by standard ScaLAPACK.
  Using Cholesky factor for transformation
  Using 1-stage real ELPA solver
  Solving real symmetric generalised eigenvalue problem by standard ScaLAPACK.
  Using Cholesky factor for transformation
  Using 1-stage real ELPA solver
  Determining occupation numbers for Kohn-Sham eigenstates.
  | Chemical potential (Fermi level) in eV                 : -.98307788E+01
  | Error in electron count due to remaining E_F inaccuracy: 0.00000000E+00
  | Maximum occupation number of highest empty state:  0.00E+00

  Current spin moment of the entire structure :
  | N = N_up - N_down :    0.00
  | S                 :    0.00
  | J                 :    1.00

  Highest occupied state (VBM) at    -11.51345508 eV
  | Occupation number:      1.00000000
  | Spin channel:        2

  Lowest unoccupied state (CBM) at     1.16580339 eV
  | Occupation number:      0.00000000
  | Spin channel:        2

  Overall HOMO-LUMO gap:     12.67925847 eV.

  Total energy components:
  | Sum of eigenvalues            :          -0.84622340 Ha         -23.02691020 eV
  | XC energy correction          :          -0.76544493 Ha         -20.82881621 eV
  | XC potential correction       :           0.98239176 Ha          26.73223983 eV
  | Free-atom electrostatic energy:          -0.11836883 Ha          -3.22097988 eV
  | Hartree energy correction     :          -0.37281708 Ha         -10.14486882 eV
  | van der Waals energy corr.    :           0.00000000 Ha           0.00000000 eV
  | Entropy correction            :           0.00000000 Ha           0.00000000 eV
  | ---------------------------
  | Total energy                  :          -1.12046248 Ha         -30.48933527 eV
  | Total energy, T -> 0          :          -1.12046248 Ha         -30.48933527 eV  <-- do not rely on this value for anything but (periodic) metals
  | Electronic free energy        :          -1.12046248 Ha         -30.48933527 eV

  Derived energy quantities:
  | Kinetic energy                :           1.38846449 Ha          37.78204116 eV
  | Electrostatic energy          :          -1.74348204 Ha         -47.44256023 eV
  | Energy correction for multipole
  | error in Hartree potential    :           0.00000167 Ha           0.00004536 eV
  | Sum of eigenvalues per atom                           :         -11.51345510 eV
  | Total energy (T->0) per atom                          :         -15.24466763 eV  <-- do not rely on this value for anything but (periodic) metals
  | Electronic free energy per atom                       :         -15.24466763 eV

  Self-consistency convergence accuracy:
  | Change of charge/spin density : 0.6381E-07 0.2297E-07
  | Change of sum of eigenvalues  : -.5069E-06 eV
  | Change of total energy        : -.1556E-10 eV

  Writing Kohn-Sham eigenvalues.

  Spin-up eigenvalues:

  State    Occupation    Eigenvalue [Ha]    Eigenvalue [eV]
      1       1.00000          -0.423112          -11.51346
      2       0.00000           0.042844            1.16584
      3       0.00000           0.045820            1.24683
      4       0.00000           0.201611            5.48612
      5       0.00000           0.337308            9.17862
      6       0.00000           0.337308            9.17862
      7       0.00000           0.353617            9.62241
      8       0.00000           0.651626           17.73165
      9       0.00000           0.792882           21.57543
     10       0.00000           0.792882           21.57543
     11       0.00000           0.813646           22.14044

  Spin-down eigenvalues:

  State    Occupation    Eigenvalue [Ha]    Eigenvalue [eV]
      1       1.00000          -0.423112          -11.51346
      2       0.00000           0.042842            1.16580
      3       0.00000           0.045819            1.24681
      4       0.00000           0.201608            5.48604
      5       0.00000           0.337308            9.17862
      6       0.00000           0.337308            9.17862
      7       0.00000           0.353616            9.62238
      8       0.00000           0.651625           17.73161
      9       0.00000           0.792882           21.57543
     10       0.00000           0.792882           21.57543
     11       0.00000           0.813646           22.14043

  Current spin moment of the entire structure :
  | N = N_up - N_down :    0.00
  | S                 :    0.00
  | J                 :    1.00

  Highest occupied state (VBM) at    -11.51345508 eV
  | Occupation number:      1.00000000
  | Spin channel:        2

  Lowest unoccupied state (CBM) at     1.16580339 eV
  | Occupation number:      0.00000000
  | Spin channel:        2

  Overall HOMO-LUMO gap:     12.67925847 eV.

  Self-consistency cycle converged.

  End self-consistency iteration #    31       :  max(cpu_time)    wall_clock(cpu1)
  | Time for this iteration                    :        0.027 s           0.027 s
  | Charge density update                      :        0.007 s           0.006 s
  | Density mixing                             :        0.002 s           0.002 s
  | Hartree multipole update                   :        0.001 s           0.001 s
  | Hartree multipole summation                :        0.005 s           0.005 s
  | Integration                                :        0.010 s           0.009 s
  | Solution of K.-S. eqns.                    :        0.001 s           0.002 s
  | Total energy evaluation                    :        0.000 s           0.001 s
------------------------------------------------------------
  Obtaining max. number of non-zero basis functions in each batch .
  Evaluating KS electron density on previously omitted grid points.
  Evaluating non-empirical van der Waals correction (Tkatchenko/Scheffler 2009).
  Performing Hirshfeld analysis of fragment charges and moments.
  ----------------------------------------------------------------------
  | Atom     1: H
  |   Hirshfeld charge        :     -0.00000040
  |   Free atom volume        :     10.31539447
  |   Hirshfeld volume        :      4.30042109
  |   Hirshfeld spin moment   :      0.00000002
  |   Hirshfeld dipole vector :      0.00000000      -0.00000000      -0.06830271
  |   Hirshfeld dipole moment :      0.06830271
  |   Hirshfeld second moments:      0.15148755      -0.00000000       0.00000000
  |                                 -0.00000000       0.15148755       0.00000000
  |                                  0.00000000       0.00000000       0.14759688
  ----------------------------------------------------------------------
  | Atom     2: H
  |   Hirshfeld charge        :     -0.00000040
  |   Free atom volume        :     10.31539447
  |   Hirshfeld volume        :      4.30042109
  |   Hirshfeld spin moment   :      0.00000002
  |   Hirshfeld dipole vector :      0.00000000      -0.00000000       0.06830271
  |   Hirshfeld dipole moment :      0.06830271
  |   Hirshfeld second moments:      0.15148755      -0.00000000      -0.00000000
  |                                 -0.00000000       0.15148755       0.00000000
  |                                 -0.00000000       0.00000000       0.14759688
  ----------------------------------------------------------------------


  Total energy components:
  | Sum of eigenvalues            :          -0.84622340 Ha         -23.02691020 eV
  | XC energy correction          :          -0.76544493 Ha         -20.82881621 eV
  | XC potential correction       :           0.98239176 Ha          26.73223983 eV
  | Free-atom electrostatic energy:          -0.11836883 Ha          -3.22097988 eV
  | Hartree energy correction     :          -0.37281708 Ha         -10.14486882 eV
  | van der Waals energy corr.    :          -0.00000022 Ha          -0.00000609 eV
  | Entropy correction            :           0.00000000 Ha           0.00000000 eV
  | ---------------------------
  | Total energy                  :          -1.12046270 Ha         -30.48934136 eV
  | Total energy, T -> 0          :          -1.12046270 Ha         -30.48934136 eV  <-- do not rely on this value for anything but (periodic) metals
  | Electronic free energy        :          -1.12046270 Ha         -30.48934136 eV

  Derived energy quantities:
  | Kinetic energy                :           1.38846449 Ha          37.78204116 eV
  | Electrostatic energy          :          -1.74348204 Ha         -47.44256023 eV
  | Energy correction for multipole
  | error in Hartree potential    :           0.00000167 Ha           0.00004536 eV
  | Sum of eigenvalues per atom                           :         -11.51345510 eV
  | Total energy (T->0) per atom                          :         -15.24467068 eV  <-- do not rely on this value for anything but (periodic) metals
  | Electronic free energy per atom                       :         -15.24467068 eV
  Timings for VdW correction (Tkatchenko-Scheffler 2009 or later):
  | CPU time:        0.002 s, Wall clock time:        0.002 s.

  Energy and forces in a compact form:
  | Total energy uncorrected      :         -0.304893413639130E+02 eV
  | Total energy corrected        :         -0.304893413639130E+02 eV  <-- do not rely on this value for anything but (periodic) metals
  | Electronic free energy        :         -0.304893413639130E+02 eV

  ------------------------------------ 
  Start decomposition of the XC Energy 
  ------------------------------------ 
  Hartree-Fock part   :          0.000000000 Ha              0.000000000 eV
  ------------------------------------ 
  X Energy            :         -0.721773315 Ha            -19.640451203 eV
  C Energy GGA        :         -0.043671611 Ha             -1.188365004 eV
  Total XC Energy     :         -0.765444926 Ha            -20.828816207 eV
  LDA X and C from self-consistent density 
  X Energy LDA        :         -0.631974488 Ha            -17.196900795 eV
  C Energy LDA        :         -0.098756164 Ha             -2.687291957 eV
  ------------------------------------ 
  End decomposition of the XC Energy 
  ------------------------------------ 

------------------------------------------------------------------------------
  Final output of selected total energy values:

  The following output summarizes some interesting total energy values
  at the end of a run (AFTER all relaxation, molecular dynamics, etc.).

  | Total energy of the DFT / Hartree-Fock s.c.f. calculation      :            -30.489341364 eV
  | Final zero-broadening corrected energy (caution - metals only) :            -30.489341364 eV
  | For reference only, the value of 1 Hartree used in FHI-aims is :             27.211384500 eV

  Before relying on these values, please be sure to understand exactly which
  total energy value is referred to by a given number. Different objects may
  all carry the same name 'total energy'. Definitions:

  Total energy of the DFT / Hartree-Fock s.c.f. calculation:
  | Note that this energy does not include ANY quantities calculated after the
  | s.c.f. cycle, in particular not ANY RPA, MP2, etc. many-body perturbation terms.

  Final zero-broadening corrected energy:
  | For metallic systems only, a broadening of the occupation numbers at the Fermi
  | level can be extrapolated back to zero broadening by an electron-gas inspired
  | formula. For all systems that are not real metals, this value can be
  | meaningless and should be avoided.

------------------------------------------------------------------------------

------------------------------------------------------------
          Leaving FHI-aims.
          Date     :  20220120, Time     :  153246.305

          Computational steps:
          | Number of self-consistency cycles          :           31

          Detailed time accounting                     :  max(cpu_time)    wall_clock(cpu1)
          | Total time                                 :        0.993 s           1.142 s
          | Preparation time                           :        0.078 s           0.079 s
          | Grid partitioning                          :        0.007 s           0.007 s
          | Preloading free-atom quantities on grid    :        0.004 s           0.003 s
          | Free-atom superposition energy             :        0.002 s           0.003 s
          | Total time for integrations                :        0.299 s           0.302 s
          | Total time for solution of K.-S. equations :        0.048 s           0.053 s
          | Total time for density update              :        0.210 s           0.175 s
          | Total time for mixing                      :        0.053 s           0.051 s
          | Total time for Hartree multipole update    :        0.042 s           0.049 s
          | Total time for Hartree multipole sum       :        0.140 s           0.139 s
          | Total time for total energy evaluation     :        0.006 s           0.018 s
          | Total time for scaled ZORA corrections     :        0.000 s           0.000 s
          | Total time for vdW correction              :        0.002 s           0.002 s

          Have a nice day.
------------------------------------------------------------
