  MPI-parallelism will be employed.
------------------------------------------------------------
          Invoking FHI-aims ...
          Version 052014
          Git rev. (modified): 096c982 Merge branch master of fhiaims:/pub/localo[...]
          Compiled on 2016/12/16 at 15:22:01 on host login02.hpc.iitd.ac.in.

          When using FHI-aims, please cite the following reference:

          Volker Blum, Ralf Gehrke, Felix Hanke, Paula Havu,
          Ville Havu, Xinguo Ren, Karsten Reuter, and Matthias Scheffler,
          'Ab Initio Molecular Simulations with Numeric Atom-Centered Orbitals: FHI-aims',
          Computer Physics Communications 180, 2175-2196 (2009)

          For any questions about FHI-aims, please visit the aimsclub website
          with its forums and wiki. Contributions to both the forums and the
          wiki are warmly encouraged - they are for you, and everyone is welcome there.

------------------------------------------------------------

  Date     :  20220120, Time     :  153324.216
  Time zero on CPU 1             :   0.258280000000000E-01  s.
  Internal wall clock time zero  :           411924804.216  s.

  Using        8 parallel tasks.
  Task        0 on host csky008 reporting.
  Task        1 on host csky008 reporting.
  Task        2 on host csky008 reporting.
  Task        3 on host csky008 reporting.
  Task        4 on host csky008 reporting.
  Task        5 on host csky008 reporting.
  Task        6 on host csky008 reporting.
  Task        7 on host csky008 reporting.

  Performing system and environment tests:
  | Environment variable OMP_NUM_THREADS correctly set to 1.
  | Stacksize not measured: no C compiler
  | Checking for scalapack...
  | Testing pdtran()...
  | All pdtran() tests passed.

  Obtaining array dimensions for all initial allocations:
  
  -----------------------------------------------------------------------
  Parsing control.in (first pass over file, find array dimensions only).
  The contents of control.in will be repeated verbatim below
  unless switched off by setting 'verbatim_writeout .false.' .
  in the first line of control.in .
  -----------------------------------------------------------------------
  
    xc               pbe
    spin             collinear
    default_initial_moment hund
    relativistic     atomic_zora scalar 1e-9
    occupation_type  gaussian 0.001
    charge        0
    vdw_correction_hirshfeld
    KS_method        scalapack_fast
    mixer            pulay
    charge_mix_param  0.4
    spin_mix_param    0.6
    sc_accuracy_rho  1E-4
    sc_accuracy_eev  1E-5
    sc_accuracy_etot 1E-5
    sc_iter_limit    100
    empty_states     10
  ################################################################################
  #
  #  FHI-aims code project
  # Volker Blum, Fritz Haber Institute Berlin, 2009
  #
  #  Suggested "tight" defaults for H atom (to be pasted into control.in file)
  #
  ################################################################################
    species        H
  #     global species definitions
      nucleus             1
      mass                1.00794
  #
      l_hartree           6
  #
      cut_pot             4.0  2.0  1.0
      basis_dep_cutoff    1e-4
  #
      radial_base         24 7.0
      radial_multiplier   2
      angular_grids       specified
        division   0.1930   50
        division   0.3175  110
        division   0.4293  194
        division   0.5066  302
        division   0.5626  434
  #      division   0.5922  590
  #      division   0.6227  974
  #      division   0.6868 1202
  #      outer_grid  770
        outer_grid  434
  ################################################################################
  #
  #  Definition of "minimal" basis
  #
  ################################################################################
  #     valence basis states
      valence      1  s   1.
  #     ion occupancy
      ion_occ      1  s   0.5
  ################################################################################
  #
  #  Suggested additional basis functions. For production calculations,
  #  uncomment them one after another (the most important basis functions are
  #  listed first).
  #
  #  Basis constructed for dimers: 0.5 A, 0.7 A, 1.0 A, 1.5 A, 2.5 A
  #
  ################################################################################
  #  "First tier" - improvements: -1014.90 meV to -62.69 meV
       hydro 2 s 2.1
       hydro 2 p 3.5
  #  "Second tier" - improvements: -12.89 meV to -1.83 meV
       hydro 1 s 0.85
       hydro 2 p 3.7
       hydro 2 s 1.2
       hydro 3 d 7
  #  "Third tier" - improvements: -0.25 meV to -0.12 meV
  #     hydro 4 f 11.2
  #     hydro 3 p 4.8
  #     hydro 4 d 9
  #     hydro 3 s 3.2
  ################################################################################
  #
  # For methods that use the localized form of the "resolution of identity" for
  # the two-electron Coulomb operator (RI_method LVL), particularly Hartree-Fock and
  # hybrid density functional calculations, the highest accuracy can be obtained by
  # uncommenting the line beginning with "for_aux"  below, thus adding an extra g radial
  # function to the construction of the product basis set for the expansion.
  # See Ref. New J. Phys. 17, 093020 (2015) for more information, particularly Figs. 1 and 6.
  #
  ################################################################################
  #
  # for_aux hydro 5 g 6.0
  
  -----------------------------------------------------------------------
  Completed first pass over input file control.in .
  -----------------------------------------------------------------------
  
  
  -----------------------------------------------------------------------
  Parsing geometry.in (first pass over file, find array dimensions only).
  The contents of geometry.in will be repeated verbatim below
  unless switched off by setting 'verbatim_writeout .false.' .
  in the first line of geometry.in .
  -----------------------------------------------------------------------
  
  atom 0 0 0 H
  atom 0 0 0.38 H
  
  -----------------------------------------------------------------------
  Completed first pass over input file geometry.in .
  -----------------------------------------------------------------------
  

  Basic array size parameters:
  | Number of species                 :        1
  | Number of atoms                   :        2
  | Max. basis fn. angular momentum   :        2
  | Max. atomic/ionic basis occupied n:        1
  | Max. number of basis fn. types    :        2
  | Max. radial fns per species/type  :        6
  | Max. logarithmic grid size        :     1131
  | Max. radial integration grid size :       49
  | Max. angular integration grid size:      434
  | Max. angular grid division number :        8
  | Radial grid for Hartree potential :     1131
  | Number of spin channels           :        2

------------------------------------------------------------
          Reading file control.in.
------------------------------------------------------------
  XC: Using PBE gradient-corrected functionals.
  Spin treatment: Spin density functional theory - collinear spins.
  Initial spin moment per atom set according to Hund's rules.
  Scalar relativistic treatment of kinetic energy: on-site free-atom approximation to ZORA.
  Occupation type: Gaussian broadening, width =   0.100000E-02 eV.
  Charge =   0.000000E+00: Neutral system requested explicitly.
  Using non-empirical van der Waals correction (Hirshfeld partitioning):
  Kohn-Sham eigenvalues and eigenfunctions calculated by the ELPA eigensolver library.
  Using pulay charge density mixing.
  Charge density mixing - mixing parameter:     0.4000
  Spin density mixing - mixing parameter:     0.6000
  Convergence accuracy of self-consistent charge density: 0.1000E-03
  Convergence accuracy of sum of eigenvalues: 0.1000E-04
  Convergence accuracy of total energy: 0.1000E-04
  Maximum number of s.-c. iterations  :   100
  Number of empty states per atom:       10
 
  Reading configuration options for species H                   .
  | Found nuclear charge :   1.0000
  | Found atomic mass :    1.00794000000000      amu
  | Found l_max for Hartree potential  :   6
  | Found cutoff potl. onset [A], width [A], scale factor :    4.00000    2.00000    1.00000
  | Threshold for basis-dependent cutoff potential is   0.100000E-03
  | Found data for basic radial integration grid :    24 points, outermost radius =    7.000 A
  | Found multiplier for basic radial grid :   2
  | Found angular grid specification: user-specified.
  | Specified grid contains     6 separate shells.
  | Check grid settings after all constraints further below.
  | Found free-atom valence shell :  1 s   1.000
  | No ionic wave fns used. Skipping ion_occ.
  | Found hydrogenic basis function :  2 s   2.100
  | Found hydrogenic basis function :  2 p   3.500
  | Found hydrogenic basis function :  1 s   0.850
  | Found hydrogenic basis function :  2 p   3.700
  | Found hydrogenic basis function :  2 s   1.200
  | Found hydrogenic basis function :  3 d   7.000
  Species H                   : Missing cutoff potential type.
  Defaulting to exp(1/x)/(1-x)^2 type cutoff potential.
  Species H : No 'logarithmic' tag. Using default grid for free atom:
  | Default logarithmic grid data [bohr] : 0.1000E-03 0.1000E+03 0.1012E+01
  Species H : On-site basis accuracy parameter (for Gram-Schmidt orthonormalisation) not specified.
  Using default value basis_acc =  0.1000000E-03.
  Species H                   : Using default innermost maximum threshold i_radial=  2 for radial functions.
  Species H                   : Default cutoff onset for free atom density etc. : 0.40000000E+01 AA.
  Species H                   : Basic radial grid will be enhanced according to radial_multiplier =   2, to contain    49 grid points.
 
  Finished reading input file 'control.in'. Consistency checks are next.
 
  Target number of points in a grid batch is not set. Defaulting to  100
  Method for grid partitioning is not set. Defaulting to parallel hash+maxmin partitioning.
  Batch size limit is not set. Defaulting to    200
  By default, will store active basis functions for each batch.
  If in need of memory, prune_basis_once .false. can be used to disable this option.
  communication_type for Hartree potential was not specified.
  Defaulting to calc_hartree .
  Pulay mixer: Number of relevant iterations not set.
  Defaulting to    8 iterations.
  Pulay mixer: Number of initial linear mixing iterations not set.
  Defaulting to    0 iterations.
  Work space size for distributed Hartree potential not set.
  Defaulting to   0.200000E+03 MB.
  Algorithm-dependent basis array size parameters:
  | n_max_pulay                         :        8
  Calculation of forces was not defined in control.in. No forces will be calculated.
  Geometry relaxation not requested: no relaxation will be performed.
  No accuracy limit for integral partition fn. given. Defaulting to 0.1000E-14.
  No threshold value for u(r) in integrations given. Defaulting to 0.1000E-05.
  No accuracy for occupation numbers given. Defaulting to 0.1000E-07.
  No threshold value for occupation numbers given. Defaulting to 0.0000E+00.
  No accuracy for fermi level given. Defaulting to 0.1000E-19.
  Maximum # of iterations to find E_F not set. Defaulting to  200.
  Will not use alltoall communication since running on < 1024 CPUs.
  Threshold for basis singularities not set.
  Default threshold for basis singularities: 0.1000E-04
  partition_type (choice of integration weights) for integrals was not specified.
  | Using a version of the partition function of Stratmann and coworkers ('stratmann_smoother').
  | At each grid point, the set of atoms used to build the partition table is smoothly restricted to
  | only those atoms whose free-atom density would be non-zero at that grid point.
  Partitioning for Hartree potential was not defined. Using partition_type for integrals.
  | Adjusted default value of keyword multip_moments_threshold to:       0.10000000E-11
  | This value may affect high angular momentum components of the Hartree potential in periodic systems.
  No q(lm)/r^(l+1) cutoff set for long-range Hartree potential.
  | Using default value of  0.100000E-09 .
  | Verify using the multipole_threshold keyword.
  Defaulting to new monopole extrapolation.
  Density update method: automatic selection selected.
------------------------------------------------------------


------------------------------------------------------------
          Reading geometry description geometry.in.
------------------------------------------------------------
  Input structure read successfully.
  The structure contains        2 atoms,  and a total of          2.000 electrons.

  Input geometry:
  | No unit cell requested.
  | Atomic structure:
  |       Atom                x [A]            y [A]            z [A]
  |    1: Species H              0.000000         0.000000         0.000000
  |    2: Species H              0.000000         0.000000         0.380000
  |

  | The smallest distance between any two atoms is         0.38000000 AA.
  |
  | The first atom of this pair is atom number                      1 .
  | The second atom of this pair is atom number                     2 .

  Initial moments and charges:
  |  Atom   Moment         Charge        Species
  |     1  (Hund's rule)   0.000000E+00   H
  |     2  (Hund's rule)   0.000000E+00   H

  Structure-dependent array size parameters: 
  | Number of distinct atom types in initial rho :        1
  | Maximum number of distinct radial functions  :        7
  | Maximum number of basis functions            :       30
  | Number of Kohn-Sham states (occupied + empty):       11
------------------------------------------------------------

------------------------------------------------------------
          Preparing all fixed parts of the calculation.
------------------------------------------------------------
  Determining machine precision:
    2.225073858507201E-308
  Setting up grids for atomic and cluster calculations.

  Creating wave function, potential, and density for free atoms.

  Species: H

  List of occupied orbitals and eigenvalues:
    n    l              occ      energy [Ha]    energy [eV]
    1    0           1.0000        -0.238386        -6.4868

  Spin-polarized or charged system:
  Charge density initialized according to selected moments and charges.

  Creating spin-polarized density from free atoms.

  Species: H
  Charge:   0.000000
  applying Hund's rules ...

  List of occupied orbitals and eigenvalues:
    n    l      energy [Ha]    energy [eV]    occupation
  Spin-up
    1    0        -0.278991        -7.5917     1.00000000
  Spin-down
    1    0         0.090850         2.4721     0.00000000

  Creating fixed part of basis set: Ionic, confined, hydrogenic.
 
  H                    hydrogenic:
 
  List of hydrogenic basis orbitals: 
    n    l      effective z      eigenvalue [eV]  inner max. [A]     outer max. [A]     outer radius [A]   
    2    0         2.100000       -14.9965           0.193243           1.317208           5.373006
    2    1         3.500000       -41.6672           0.602369           0.602369           4.056063
    1    0         0.850000        -9.8292           0.624871           0.624871           5.373006
    2    1         3.700000       -46.5653           0.573622           0.573622           3.910002
    2    0         1.200000        -4.5995           0.334980           2.228188           5.505995
    3    2         7.000000       -74.0753           0.680699           0.680699           3.769201
 

  Adding cutoff potential to free-atom effective potential.
  Creating atomic-like basis functions for current effective potential.

  Species H                   :

  List of atomic basis orbitals and eigenvalues:
    n    l      energy [Ha]    energy [eV]    outer radius [A]
    1    0        -0.238386        -6.4868       5.373006

  Assembling full basis from fixed parts.
  | Species H :   atomic orbital   1 s accepted.
  | Species H :    hydro orbital   2 s accepted.
  | Species H :    hydro orbital   1 s accepted.
  | Species H :    hydro orbital   2 s accepted.
  | Species H :    hydro orbital   2 p accepted.
  | Species H :    hydro orbital   2 p accepted.
  | Species H :    hydro orbital   3 d accepted.
 
  Basis size parameters after reduction:
  | Total number of radial functions:        7
  | Total number of basis functions :       30
 
  Testing on-site integration grid accuracy.
  |  Species  Function  <phi|h_atom|phi> (log., in eV)  <phi|h_atom|phi> (rad., in eV)
           1        1                 -6.4870767962                 -6.4871688290
           1        2                 13.5032046589                 13.5028982997
           1        3                 32.8195184817                 32.8119941656
           1        4                 33.8513856511                 33.7670005767 ***
           1        5                 28.8544614965                 28.8544615203
           1        6                 59.6326952547                 59.6327656460
           1        7                 60.2719308513                 60.2719305949
 * Note: Onsite integrals marked "***" above are less accurate than
 * onsite_accuracy_threshold =    0.03000 eV. Usually, this is harmless.
 * When in doubt, tighten the "radial" and/or "radial_multiplier" flags to check.

  Preparing densities etc. for the partition functions (integrals / Hartree potential).

  Preparations completed.
  max(cpu_time)          :      0.069 s.
  Wall clock time (cpu1) :      0.070 s.
------------------------------------------------------------

------------------------------------------------------------
          Begin self-consistency loop: Initialization.

          Date     :  20220120, Time     :  153324.364
------------------------------------------------------------

  Initializing index lists of integration centers etc. from given atomic structure:
  | Number of centers in hartree potential         :         2
  | Number of centers in hartree multipole         :         2
  | Number of centers in electron density summation:         2
  | Number of centers in basis integrals           :         2
  | Number of centers in integrals                 :         2
  Using modified Scalapack Eigenvalue solver (ELPA)
  * Using 8 tasks for Scalapack Eigenvalue solver.
  Detailed listing of tasks and assigned k-points:
  (for non-periodic systems, the "k-point" denotes an internal label only)
   Task     0 k-point     1 on csky008
   Task     1 k-point     1 on csky008
   Task     2 k-point     1 on csky008
   Task     3 k-point     1 on csky008
   Task     4 k-point     1 on csky008
   Task     5 k-point     1 on csky008
   Task     6 k-point     1 on csky008
   Task     7 k-point     1 on csky008
  Tasks:     8 split into      4 X      2 BLACS grid
  Calculating blocksize based on n_basis =           30 max_nprow =            4 max_npcol =            2
  Scalapack blocksize set to:            4
  Required Scalapack workspace - INTEGER:            1 REAL:             1
  Partitioning the integration grid into batches with parallel hashing+maxmin method.
  | Number of batches:      443
  | Maximal batch size:     197
  | Minimal batch size:      49
  | Average batch size:      65.237
  | Standard deviation of batch sizes:      18.479

  Integration load balanced across     8 MPI tasks.
  Work distribution over tasks is as follows:
  Task     0 has       3587 integration points.
  Task     1 has       3624 integration points.
  Task     2 has       3578 integration points.
  Task     3 has       3594 integration points.
  Task     4 has       3675 integration points.
  Task     5 has       3586 integration points.
  Task     6 has       3614 integration points.
  Task     7 has       3642 integration points.
  Initializing partition tables, free-atom densities, potentials, etc. across the integration grid (initialize_grid_storage).
  | initialize_grid_storage: Actual outermost partition radius vs. multipole_radius_free
  | (-- VB: in principle, multipole_radius_free should be larger, hence this output)
  | Species        1: outer_partition_radius =              6.000000000000000 AA, multipole_radius_free =              6.071692442739658 AA.
  | Original list of interatomic distances with           2 x          2 entries is created.
  | Net number of integration points:    28900
  | of which are non-zero points    :    25712
  Obtaining max. number of non-zero basis functions in each batch (get_n_compute_maxes).
  | Maximal number of non-zero basis functions:       30 in task     0
  | Maximal number of non-zero basis functions:       30 in task     1
  | Maximal number of non-zero basis functions:       30 in task     2
  | Maximal number of non-zero basis functions:       30 in task     3
  | Maximal number of non-zero basis functions:       30 in task     4
  | Maximal number of non-zero basis functions:       30 in task     5
  | Maximal number of non-zero basis functions:       30 in task     6
  | Maximal number of non-zero basis functions:       30 in task     7
  Selecting the method for density update.
  Loop over occupied states selected for charge density update.
  Integrating Hamiltonian matrix: batch-based integration.
  Time summed over all CPUs for integration: real work        0.072 s, elapsed        0.080 s
  Integrating overlap matrix.
  Time summed over all CPUs for integration: real work        0.019 s, elapsed        0.026 s
  Deallocating overlap matrix.

  Updating Kohn-Sham eigenvalues, eigenvectors, occupation numbers, and Fermi level.
  Solving generalized eigenproblem
  Solving real symmetric generalised eigenvalue problem by standard ScaLAPACK.
  Transforming overlap matrix with ScaLAPACK and checking for singularities.
  : Overlap matrix is nonsingular, using Cholesky decomposition
  | Lowest eigenvalue:  0.450151E-04
  Factoring overlap matrix with Cholesky decomposition
  Using Cholesky factor for transformation
  Using 1-stage real ELPA solver
  Solving real symmetric generalised eigenvalue problem by standard ScaLAPACK.
  Using Cholesky factor for transformation
  Using 1-stage real ELPA solver
  Determining occupation numbers for Kohn-Sham eigenstates.
  | Chemical potential (Fermi level) in eV                 : -.18836195E+00
  | Error in electron count due to remaining E_F inaccuracy: 0.00000000E+00
  | Maximum occupation number of highest empty state:  0.00E+00

  Writing Kohn-Sham eigenvalues.

  Spin-up eigenvalues:

  State    Occupation    Eigenvalue [Ha]    Eigenvalue [eV]
      1       1.00000          -0.829825          -22.58069
      2       1.00000          -0.007807           -0.21245
      3       0.00000          -0.003480           -0.09471
      4       0.00000           0.145129            3.94916
      5       0.00000           0.201267            5.47676
      6       0.00000           0.201267            5.47676
      7       0.00000           0.254083            6.91395
      8       0.00000           0.591373           16.09207
      9       0.00000           0.649847           17.68325
     10       0.00000           0.649847           17.68325
     11       0.00000           0.708450           19.27790

  Spin-down eigenvalues:

  State    Occupation    Eigenvalue [Ha]    Eigenvalue [eV]
      1       0.00000           0.099234            2.70029
      2       0.00000           0.109249            2.97280
      3       0.00000           0.515496           14.02735
      4       0.00000           0.525291           14.29390
      5       0.00000           1.109160           30.18179
      6       0.00000           1.202781           32.72933
      7       0.00000           1.202781           32.72933
      8       0.00000           1.338957           36.43487
      9       0.00000           1.338957           36.43487
     10       0.00000           1.511830           41.13898
     11       0.00000           1.700742           46.27955

  Current spin moment of the entire structure :
  | N = N_up - N_down :    2.00
  | S                 :    1.00
  | J                 :    3.00

  Highest occupied state (VBM) at     -0.21244695 eV
  | Occupation number:      1.00000000
  | Spin channel:        1

  Lowest unoccupied state (CBM) at    -0.09470557 eV
  | Occupation number:      0.00000000
  | Spin channel:        1

  Overall HOMO-LUMO gap:      0.11774137 eV.
  Calculating total energy contributions from superposition of free atom densities.

  Total energy components:
  | Sum of eigenvalues            :          -0.83763225 Ha         -22.79313324 eV
  | XC energy correction          :          -0.72571852 Ha         -19.74780555 eV
  | XC potential correction       :           0.93711694 Ha          25.50024945 eV
  | Free-atom electrostatic energy:           0.26551836 Ha           7.22512217 eV
  | Hartree energy correction     :           0.00000000 Ha           0.00000000 eV
  | van der Waals energy corr.    :           0.00000000 Ha           0.00000000 eV
  | Entropy correction            :          -0.00000000 Ha          -0.00000000 eV
  | ---------------------------
  | Total energy                  :          -0.36071546 Ha          -9.81556717 eV
  | Total energy, T -> 0          :          -0.36071546 Ha          -9.81556717 eV  <-- do not rely on this value for anything but (periodic) metals
  | Electronic free energy        :          -0.36071546 Ha          -9.81556717 eV

  Derived energy quantities:
  | Kinetic energy                :           1.30347993 Ha          35.46949350 eV
  | Electrostatic energy          :          -0.93847688 Ha         -25.53725512 eV
  | Energy correction for multipole
  | error in Hartree potential    :           0.00000000 Ha           0.00000000 eV
  | Sum of eigenvalues per atom                           :         -11.39656662 eV
  | Total energy (T->0) per atom                          :          -4.90778358 eV  <-- do not rely on this value for anything but (periodic) metals
  | Electronic free energy per atom                       :          -4.90778358 eV
  Initialize hartree_potential_storage
  Max. number of atoms included in rho_multipole:            2

  End scf initialization - timings             :  max(cpu_time)    wall_clock(cpu1)
  | Time for scf. initialization               :        0.038 s           0.039 s
  | Boundary condition initialization          :        0.000 s           0.000 s
  | Integration                                :        0.014 s           0.014 s
  | Solution of K.-S. eqns.                    :        0.008 s           0.008 s
  | Grid partitioning                          :        0.006 s           0.006 s
  | Preloading free-atom quantities on grid    :        0.003 s           0.003 s
  | Free-atom superposition energy             :        0.002 s           0.002 s
  | Total energy evaluation                    :        0.000 s           0.001 s
------------------------------------------------------------

------------------------------------------------------------
          Begin self-consistency iteration #    1

  Date     :  20220120, Time     :  153324.403
------------------------------------------------------------
  Evaluating new KS density.
  Integration grid: deviation in total charge (<rho> - N_e) =   2.024480E-06
  | <rho_up-rho_dn> = N_up-N_dn =      2.0000; <|rho_up-rho_dn|> =      2.5096
  Pulay mixing of updated and previous charge densities.

  Evaluating partitioned Hartree potential by multipole expansion.
  | Analytical far-field extrapolation by fixed multipoles:
  | Hartree multipole sum: apparent total charge =  -0.265767E-04
  Summing up the Hartree potential.
  Time summed over all CPUs for potential: real work        0.030 s, elapsed        0.031 s
  | RMS charge density error from multipole expansion :   0.749533E-03

  Integrating Hamiltonian matrix: batch-based integration.
  Time summed over all CPUs for integration: real work        0.057 s, elapsed        0.060 s

  Updating Kohn-Sham eigenvalues, eigenvectors, occupation numbers, and Fermi level.
  Solving generalized eigenproblem
  Solving real symmetric generalised eigenvalue problem by standard ScaLAPACK.
  Using Cholesky factor for transformation
  Using 1-stage real ELPA solver
  Solving real symmetric generalised eigenvalue problem by standard ScaLAPACK.
  Using Cholesky factor for transformation
  Using 1-stage real ELPA solver
  Determining occupation numbers for Kohn-Sham eigenstates.
  | Chemical potential (Fermi level) in eV                 : -.91096152E+01
  | Error in electron count due to remaining E_F inaccuracy: 0.00000000E+00
  | Maximum occupation number of highest empty state:  0.00E+00

  Writing Kohn-Sham eigenvalues.

  Spin-up eigenvalues:

  State    Occupation    Eigenvalue [Ha]    Eigenvalue [eV]
      1       1.00000          -0.632665          -17.21568
      2       0.00000           0.038228            1.04025
      3       0.00000           0.066822            1.81833
      4       0.00000           0.165068            4.49172
      5       0.00000           0.197291            5.36855
      6       0.00000           0.197291            5.36855
      7       0.00000           0.319039            8.68149
      8       0.00000           0.635776           17.30034
      9       0.00000           0.659064           17.93404
     10       0.00000           0.659064           17.93404
     11       0.00000           0.727078           19.78481

  Spin-down eigenvalues:

  State    Occupation    Eigenvalue [Ha]    Eigenvalue [eV]
      1       1.00000          -0.455465          -12.39384
      2       0.00000           0.066968            1.82228
      3       0.00000           0.075173            2.04557
      4       0.00000           0.210725            5.73413
      5       0.00000           0.302508            8.23167
      6       0.00000           0.302508            8.23167
      7       0.00000           0.360635            9.81338
      8       0.00000           0.715219           19.46210
      9       0.00000           0.727374           19.79286
     10       0.00000           0.727374           19.79286
     11       0.00000           0.804229           21.88418

  Current spin moment of the entire structure :
  | N = N_up - N_down :    0.00
  | S                 :    0.00
  | J                 :    1.00

  Highest occupied state (VBM) at    -12.39383582 eV
  | Occupation number:      1.00000000
  | Spin channel:        2

  Lowest unoccupied state (CBM) at     1.04024726 eV
  | Occupation number:      0.00000000
  | Spin channel:        1

  Overall HOMO-LUMO gap:     13.43408308 eV.

  Total energy components:
  | Sum of eigenvalues            :          -1.08812985 Ha         -29.60951961 eV
  | XC energy correction          :          -0.41137078 Ha         -11.19396848 eV
  | XC potential correction       :           0.52505648 Ha          14.28751366 eV
  | Free-atom electrostatic energy:           0.26551836 Ha           7.22512217 eV
  | Hartree energy correction     :           0.09544564 Ha           2.59720807 eV
  | van der Waals energy corr.    :           0.00000000 Ha           0.00000000 eV
  | Entropy correction            :           0.00000000 Ha           0.00000000 eV
  | ---------------------------
  | Total energy                  :          -0.61348015 Ha         -16.69364419 eV
  | Total energy, T -> 0          :          -0.61348015 Ha         -16.69364419 eV  <-- do not rely on this value for anything but (periodic) metals
  | Electronic free energy        :          -0.61348015 Ha         -16.69364419 eV

  Derived energy quantities:
  | Kinetic energy                :           0.85087564 Ha          23.15350411 eV
  | Electrostatic energy          :          -1.05298500 Ha         -28.65317982 eV
  | Energy correction for multipole
  | error in Hartree potential    :          -0.00001315 Ha          -0.00035792 eV
  | Sum of eigenvalues per atom                           :         -14.80475981 eV
  | Total energy (T->0) per atom                          :          -8.34682210 eV  <-- do not rely on this value for anything but (periodic) metals
  | Electronic free energy per atom                       :          -8.34682210 eV

  Self-consistency convergence accuracy:
  | Change of charge/spin density : 0.1378E+00 0.1378E+00
  | Change of sum of eigenvalues  : -.6816E+01 eV
  | Change of total energy        : -.6878E+01 eV

  End self-consistency iteration #     1       :  max(cpu_time)    wall_clock(cpu1)
  | Time for this iteration                    :        0.023 s           0.023 s
  | Charge density update                      :        0.006 s           0.006 s
  | Density mixing                             :        0.001 s           0.000 s
  | Hartree multipole update                   :        0.001 s           0.002 s
  | Hartree multipole summation                :        0.005 s           0.004 s
  | Integration                                :        0.008 s           0.008 s
  | Solution of K.-S. eqns.                    :        0.001 s           0.001 s
  | Total energy evaluation                    :        0.000 s           0.001 s
------------------------------------------------------------

------------------------------------------------------------
          Begin self-consistency iteration #    2

  Date     :  20220120, Time     :  153324.430
------------------------------------------------------------
  Evaluating new KS density.
  Integration grid: deviation in total charge (<rho> - N_e) =   1.214688E-06
  | <rho_up-rho_dn> = N_up-N_dn =     -2.0000; <|rho_up-rho_dn|> =      2.0000
  Pulay mixing of updated and previous charge densities.

  Evaluating partitioned Hartree potential by multipole expansion.
  | Analytical far-field extrapolation by fixed multipoles:
  | Hartree multipole sum: apparent total charge =  -0.243960E-04
  Summing up the Hartree potential.
  Time summed over all CPUs for potential: real work        0.030 s, elapsed        0.030 s
  | RMS charge density error from multipole expansion :   0.791532E-03

  Integrating Hamiltonian matrix: batch-based integration.
  Time summed over all CPUs for integration: real work        0.059 s, elapsed        0.062 s

  Updating Kohn-Sham eigenvalues, eigenvectors, occupation numbers, and Fermi level.
  Solving generalized eigenproblem
  Solving real symmetric generalised eigenvalue problem by standard ScaLAPACK.
  Using Cholesky factor for transformation
  Using 1-stage real ELPA solver
  Solving real symmetric generalised eigenvalue problem by standard ScaLAPACK.
  Using Cholesky factor for transformation
  Using 1-stage real ELPA solver
  Determining occupation numbers for Kohn-Sham eigenstates.
  | Chemical potential (Fermi level) in eV                 : -.13564699E+02
  | Error in electron count due to remaining E_F inaccuracy: 0.00000000E+00
  | Maximum occupation number of highest empty state:  0.00E+00

  Current spin moment of the entire structure :
  | N = N_up - N_down :    0.00
  | S                 :    0.00
  | J                 :    1.00

  Highest occupied state (VBM) at    -16.40123552 eV
  | Occupation number:      1.00000000
  | Spin channel:        2

  Lowest unoccupied state (CBM) at     0.84228194 eV
  | Occupation number:      0.00000000
  | Spin channel:        1

  Overall HOMO-LUMO gap:     17.24351746 eV.

  Total energy components:
  | Sum of eigenvalues            :          -1.43696601 Ha         -39.10183467 eV
  | XC energy correction          :          -0.61007567 Ha         -16.60100375 eV
  | XC potential correction       :           0.78492046 Ha          21.35877238 eV
  | Free-atom electrostatic energy:           0.26551836 Ha           7.22512217 eV
  | Hartree energy correction     :           0.05972864 Ha           1.62529887 eV
  | van der Waals energy corr.    :           0.00000000 Ha           0.00000000 eV
  | Entropy correction            :           0.00000000 Ha           0.00000000 eV
  | ---------------------------
  | Total energy                  :          -0.93687423 Ha         -25.49364499 eV
  | Total energy, T -> 0          :          -0.93687423 Ha         -25.49364499 eV  <-- do not rely on this value for anything but (periodic) metals
  | Electronic free energy        :          -0.93687423 Ha         -25.49364499 eV

  Derived energy quantities:
  | Kinetic energy                :           0.77561636 Ha          21.10559505 eV
  | Electrostatic energy          :          -1.10241492 Ha         -29.99823629 eV
  | Energy correction for multipole
  | error in Hartree potential    :           0.00000828 Ha           0.00022540 eV
  | Sum of eigenvalues per atom                           :         -19.55091733 eV
  | Total energy (T->0) per atom                          :         -12.74682250 eV  <-- do not rely on this value for anything but (periodic) metals
  | Electronic free energy per atom                       :         -12.74682250 eV

  Self-consistency convergence accuracy:
  | Change of charge/spin density : 0.1678E+00 0.3507E+00
  | Change of sum of eigenvalues  : -.9492E+01 eV
  | Change of total energy        : -.8800E+01 eV

  End self-consistency iteration #     2       :  max(cpu_time)    wall_clock(cpu1)
  | Time for this iteration                    :        0.022 s           0.023 s
  | Charge density update                      :        0.006 s           0.005 s
  | Density mixing                             :        0.001 s           0.002 s
  | Hartree multipole update                   :        0.001 s           0.001 s
  | Hartree multipole summation                :        0.004 s           0.004 s
  | Integration                                :        0.008 s           0.008 s
  | Solution of K.-S. eqns.                    :        0.001 s           0.002 s
  | Total energy evaluation                    :        0.000 s           0.001 s
------------------------------------------------------------

------------------------------------------------------------
          Begin self-consistency iteration #    3

  Date     :  20220120, Time     :  153324.454
------------------------------------------------------------
  Evaluating new KS density.
  Integration grid: deviation in total charge (<rho> - N_e) =   1.115529E-06
  | <rho_up-rho_dn> = N_up-N_dn =     -1.7551; <|rho_up-rho_dn|> =      1.7551
  Pulay mixing of updated and previous charge densities.

  Evaluating partitioned Hartree potential by multipole expansion.
  | Analytical far-field extrapolation by fixed multipoles:
  | Hartree multipole sum: apparent total charge =  -0.260644E-04
  Summing up the Hartree potential.
  Time summed over all CPUs for potential: real work        0.030 s, elapsed        0.030 s
  | RMS charge density error from multipole expansion :   0.500189E-03

  Integrating Hamiltonian matrix: batch-based integration.
  Time summed over all CPUs for integration: real work        0.058 s, elapsed        0.061 s

  Updating Kohn-Sham eigenvalues, eigenvectors, occupation numbers, and Fermi level.
  Solving generalized eigenproblem
  Solving real symmetric generalised eigenvalue problem by standard ScaLAPACK.
  Using Cholesky factor for transformation
  Using 1-stage real ELPA solver
  Solving real symmetric generalised eigenvalue problem by standard ScaLAPACK.
  Using Cholesky factor for transformation
  Using 1-stage real ELPA solver
  Determining occupation numbers for Kohn-Sham eigenstates.
  | Chemical potential (Fermi level) in eV                 : -.10268447E+02
  | Error in electron count due to remaining E_F inaccuracy: 0.00000000E+00
  | Maximum occupation number of highest empty state:  0.00E+00

  Current spin moment of the entire structure :
  | N = N_up - N_down :    0.00
  | S                 :    0.00
  | J                 :    1.00

  Highest occupied state (VBM) at    -13.72654710 eV
  | Occupation number:      1.00000000
  | Spin channel:        2

  Lowest unoccupied state (CBM) at     0.70103028 eV
  | Occupation number:      0.00000000
  | Spin channel:        1

  Overall HOMO-LUMO gap:     14.42757738 eV.

  Total energy components:
  | Sum of eigenvalues            :          -1.18528504 Ha         -32.25324700 eV
  | XC energy correction          :          -0.45183813 Ha         -12.29514100 eV
  | XC potential correction       :           0.57833630 Ha          15.73733144 eV
  | Free-atom electrostatic energy:           0.26551836 Ha           7.22512217 eV
  | Hartree energy correction     :           0.11194577 Ha           3.04619940 eV
  | van der Waals energy corr.    :           0.00000000 Ha           0.00000000 eV
  | Entropy correction            :           0.00000000 Ha           0.00000000 eV
  | ---------------------------
  | Total energy                  :          -0.68132274 Ha         -18.53973498 eV
  | Total energy, T -> 0          :          -0.68132274 Ha         -18.53973498 eV  <-- do not rely on this value for anything but (periodic) metals
  | Electronic free energy        :          -0.68132274 Ha         -18.53973498 eV

  Derived energy quantities:
  | Kinetic energy                :           0.74134394 Ha          20.17299506 eV
  | Electrostatic energy          :          -0.97082855 Ha         -26.41758905 eV
  | Energy correction for multipole
  | error in Hartree potential    :          -0.00001328 Ha          -0.00036124 eV
  | Sum of eigenvalues per atom                           :         -16.12662350 eV
  | Total energy (T->0) per atom                          :          -9.26986749 eV  <-- do not rely on this value for anything but (periodic) metals
  | Electronic free energy per atom                       :          -9.26986749 eV

  Self-consistency convergence accuracy:
  | Change of charge/spin density : 0.3047E+00 0.2871E+00
  | Change of sum of eigenvalues  : 0.6849E+01 eV
  | Change of total energy        : 0.6954E+01 eV

  End self-consistency iteration #     3       :  max(cpu_time)    wall_clock(cpu1)
  | Time for this iteration                    :        0.022 s           0.022 s
  | Charge density update                      :        0.006 s           0.006 s
  | Density mixing                             :        0.001 s           0.001 s
  | Hartree multipole update                   :        0.001 s           0.001 s
  | Hartree multipole summation                :        0.004 s           0.004 s
  | Integration                                :        0.008 s           0.008 s
  | Solution of K.-S. eqns.                    :        0.001 s           0.001 s
  | Total energy evaluation                    :        0.000 s           0.000 s
------------------------------------------------------------

------------------------------------------------------------
          Begin self-consistency iteration #    4

  Date     :  20220120, Time     :  153324.480
------------------------------------------------------------
  Evaluating new KS density.
  Integration grid: deviation in total charge (<rho> - N_e) =   1.171425E-06
  | <rho_up-rho_dn> = N_up-N_dn =     -1.8681; <|rho_up-rho_dn|> =      1.8681
  Pulay mixing of updated and previous charge densities.

  Evaluating partitioned Hartree potential by multipole expansion.
  | Analytical far-field extrapolation by fixed multipoles:
  | Hartree multipole sum: apparent total charge =  -0.275466E-04
  Summing up the Hartree potential.
  Time summed over all CPUs for potential: real work        0.030 s, elapsed        0.031 s
  | RMS charge density error from multipole expansion :   0.342489E-02

  Integrating Hamiltonian matrix: batch-based integration.
  Time summed over all CPUs for integration: real work        0.059 s, elapsed        0.063 s

  Updating Kohn-Sham eigenvalues, eigenvectors, occupation numbers, and Fermi level.
  Solving generalized eigenproblem
  Solving real symmetric generalised eigenvalue problem by standard ScaLAPACK.
  Using Cholesky factor for transformation
  Using 1-stage real ELPA solver
  Solving real symmetric generalised eigenvalue problem by standard ScaLAPACK.
  Using Cholesky factor for transformation
  Using 1-stage real ELPA solver
  Determining occupation numbers for Kohn-Sham eigenstates.
  | Chemical potential (Fermi level) in eV                 : -.19003779E+02
  | Error in electron count due to remaining E_F inaccuracy: 0.00000000E+00
  | Maximum occupation number of highest empty state:  0.00E+00

  Current spin moment of the entire structure :
  | N = N_up - N_down :    0.00
  | S                 :    0.00
  | J                 :    1.00

  Highest occupied state (VBM) at    -19.98922806 eV
  | Occupation number:      1.00000000
  | Spin channel:        2

  Lowest unoccupied state (CBM) at    -0.48376125 eV
  | Occupation number:      0.00000000
  | Spin channel:        1

  Overall HOMO-LUMO gap:     19.50546681 eV.

  Total energy components:
  | Sum of eigenvalues            :          -1.54026337 Ha         -41.91269889 eV
  | XC energy correction          :          -0.48785091 Ha         -13.27509872 eV
  | XC potential correction       :           0.62580226 Ha          17.02894595 eV
  | Free-atom electrostatic energy:           0.26551836 Ha           7.22512217 eV
  | Hartree energy correction     :           0.27603124 Ha           7.51119221 eV
  | van der Waals energy corr.    :           0.00000000 Ha           0.00000000 eV
  | Entropy correction            :           0.00000000 Ha           0.00000000 eV
  | ---------------------------
  | Total energy                  :          -0.86076242 Ha         -23.42253727 eV
  | Total energy, T -> 0          :          -0.86076242 Ha         -23.42253727 eV  <-- do not rely on this value for anything but (periodic) metals
  | Electronic free energy        :          -0.86076242 Ha         -23.42253727 eV

  Derived energy quantities:
  | Kinetic energy                :          -0.64335130 Ha         -17.50647968 eV
  | Electrostatic energy          :           0.27043979 Ha           7.35904113 eV
  | Energy correction for multipole
  | error in Hartree potential    :          -0.00002861 Ha          -0.00077840 eV
  | Sum of eigenvalues per atom                           :         -20.95634945 eV
  | Total energy (T->0) per atom                          :         -11.71126864 eV  <-- do not rely on this value for anything but (periodic) metals
  | Electronic free energy per atom                       :         -11.71126864 eV

  Self-consistency convergence accuracy:
  | Change of charge/spin density : 0.2138E+00 0.3169E+00
  | Change of sum of eigenvalues  : -.9659E+01 eV
  | Change of total energy        : -.4883E+01 eV

  End self-consistency iteration #     4       :  max(cpu_time)    wall_clock(cpu1)
  | Time for this iteration                    :        0.023 s           0.022 s
  | Charge density update                      :        0.006 s           0.005 s
  | Density mixing                             :        0.001 s           0.001 s
  | Hartree multipole update                   :        0.001 s           0.001 s
  | Hartree multipole summation                :        0.004 s           0.005 s
  | Integration                                :        0.008 s           0.008 s
  | Solution of K.-S. eqns.                    :        0.001 s           0.001 s
  | Total energy evaluation                    :        0.000 s           0.001 s
------------------------------------------------------------

------------------------------------------------------------
          Begin self-consistency iteration #    5

  Date     :  20220120, Time     :  153324.504
------------------------------------------------------------
  Evaluating new KS density.
  Integration grid: deviation in total charge (<rho> - N_e) =   1.002114E-06
  | <rho_up-rho_dn> = N_up-N_dn =     -1.3764; <|rho_up-rho_dn|> =      1.3764
  Pulay mixing of updated and previous charge densities.

  Evaluating partitioned Hartree potential by multipole expansion.
  | Analytical far-field extrapolation by fixed multipoles:
  | Hartree multipole sum: apparent total charge =   0.833190E-05
  Summing up the Hartree potential.
  Time summed over all CPUs for potential: real work        0.030 s, elapsed        0.031 s
  | RMS charge density error from multipole expansion :   0.190793E-01

  Integrating Hamiltonian matrix: batch-based integration.
  Time summed over all CPUs for integration: real work        0.053 s, elapsed        0.056 s

  Updating Kohn-Sham eigenvalues, eigenvectors, occupation numbers, and Fermi level.
  Solving generalized eigenproblem
  Solving real symmetric generalised eigenvalue problem by standard ScaLAPACK.
  Using Cholesky factor for transformation
  Using 1-stage real ELPA solver
  Solving real symmetric generalised eigenvalue problem by standard ScaLAPACK.
  Using Cholesky factor for transformation
  Using 1-stage real ELPA solver
  Determining occupation numbers for Kohn-Sham eigenstates.
  | Chemical potential (Fermi level) in eV                 : 0.23739935E+01
  | Error in electron count due to remaining E_F inaccuracy: 0.00000000E+00
  | Maximum occupation number of highest empty state:  0.00E+00

  Current spin moment of the entire structure :
  | N = N_up - N_down :    0.00
  | S                 :    0.00
  | J                 :    1.00

  Highest occupied state (VBM) at      1.49371537 eV
  | Occupation number:      1.00000000
  | Spin channel:        2
 * WARNING: The VBM is higher than the internal energy zero!

  Lowest unoccupied state (CBM) at     2.59056603 eV
  | Occupation number:      0.00000000
  | Spin channel:        1

  Overall HOMO-LUMO gap:      1.09685066 eV.

  Total energy components:
  | Sum of eigenvalues            :           0.10817410 Ha           2.94356702 eV
  | XC energy correction          :          -2.88118646 Ha         -78.40107260 eV
  | XC potential correction       :           3.72853133 Ha         101.45849962 eV
  | Free-atom electrostatic energy:           0.26551836 Ha           7.22512217 eV
  | Hartree energy correction     :          -5.00216104 Ha        -136.11572747 eV
  | van der Waals energy corr.    :           0.00000000 Ha           0.00000000 eV
  | Entropy correction            :           0.00000000 Ha           0.00000000 eV
  | ---------------------------
  | Total energy                  :          -3.78112371 Ha        -102.88961125 eV
  | Total energy, T -> 0          :          -3.78112371 Ha        -102.88961125 eV  <-- do not rely on this value for anything but (periodic) metals
  | Electronic free energy        :          -3.78112371 Ha        -102.88961125 eV

  Derived energy quantities:
  | Kinetic energy                :           2.67936763 Ha          72.90930270 eV
  | Electrostatic energy          :          -3.57930488 Ha         -97.39784135 eV
  | Energy correction for multipole
  | error in Hartree potential    :           0.00031791 Ha           0.00865073 eV
  | Sum of eigenvalues per atom                           :           1.47178351 eV
  | Total energy (T->0) per atom                          :         -51.44480562 eV  <-- do not rely on this value for anything but (periodic) metals
  | Electronic free energy per atom                       :         -51.44480562 eV

  Self-consistency convergence accuracy:
  | Change of charge/spin density : 0.6664E+00 0.2071E+00
  | Change of sum of eigenvalues  : 0.4486E+02 eV
  | Change of total energy        : -.7947E+02 eV

  End self-consistency iteration #     5       :  max(cpu_time)    wall_clock(cpu1)
  | Time for this iteration                    :        0.022 s           0.021 s
  | Charge density update                      :        0.006 s           0.005 s
  | Density mixing                             :        0.001 s           0.001 s
  | Hartree multipole update                   :        0.001 s           0.001 s
  | Hartree multipole summation                :        0.004 s           0.004 s
  | Integration                                :        0.007 s           0.008 s
  | Solution of K.-S. eqns.                    :        0.001 s           0.001 s
  | Total energy evaluation                    :        0.000 s           0.001 s
------------------------------------------------------------

------------------------------------------------------------
          Begin self-consistency iteration #    6

  Date     :  20220120, Time     :  153324.530
------------------------------------------------------------
  Evaluating new KS density.
  Integration grid: deviation in total charge (<rho> - N_e) =   7.148236E-07
  | <rho_up-rho_dn> = N_up-N_dn =     -1.1568; <|rho_up-rho_dn|> =      1.4355
  Pulay mixing of updated and previous charge densities.

  Evaluating partitioned Hartree potential by multipole expansion.
  | Analytical far-field extrapolation by fixed multipoles:
  | Hartree multipole sum: apparent total charge =  -0.881934E-05
  Summing up the Hartree potential.
  Time summed over all CPUs for potential: real work        0.030 s, elapsed        0.030 s
  | RMS charge density error from multipole expansion :   0.139518E-01

  Integrating Hamiltonian matrix: batch-based integration.
  Time summed over all CPUs for integration: real work        0.059 s, elapsed        0.061 s

  Updating Kohn-Sham eigenvalues, eigenvectors, occupation numbers, and Fermi level.
  Solving generalized eigenproblem
  Solving real symmetric generalised eigenvalue problem by standard ScaLAPACK.
  Using Cholesky factor for transformation
  Using 1-stage real ELPA solver
  Solving real symmetric generalised eigenvalue problem by standard ScaLAPACK.
  Using Cholesky factor for transformation
  Using 1-stage real ELPA solver
  Determining occupation numbers for Kohn-Sham eigenstates.
  | Chemical potential (Fermi level) in eV                 : 0.40441309E+00
  | Error in electron count due to remaining E_F inaccuracy: 0.00000000E+00
  | Maximum occupation number of highest empty state:  0.00E+00

  Current spin moment of the entire structure :
  | N = N_up - N_down :    0.00
  | S                 :    0.00
  | J                 :    1.00

  Highest occupied state (VBM) at     -0.33186211 eV
  | Occupation number:      1.00000000
  | Spin channel:        1

  Lowest unoccupied state (CBM) at     0.81518601 eV
  | Occupation number:      0.00000000
  | Spin channel:        2

  Overall HOMO-LUMO gap:      1.14704812 eV.

  Total energy components:
  | Sum of eigenvalues            :          -0.03043489 Ha          -0.82817562 eV
  | XC energy correction          :          -2.08808944 Ha         -56.81980476 eV
  | XC potential correction       :           2.69547351 Ha          73.34756612 eV
  | Free-atom electrostatic energy:           0.26551836 Ha           7.22512217 eV
  | Hartree energy correction     :          -3.03409238 Ha         -82.56185429 eV
  | van der Waals energy corr.    :           0.00000000 Ha           0.00000000 eV
  | Entropy correction            :           0.00000000 Ha           0.00000000 eV
  | ---------------------------
  | Total energy                  :          -2.19162485 Ha         -59.63714637 eV
  | Total energy, T -> 0          :          -2.19162485 Ha         -59.63714637 eV  <-- do not rely on this value for anything but (periodic) metals
  | Electronic free energy        :          -2.19162485 Ha         -59.63714637 eV

  Derived energy quantities:
  | Kinetic energy                :           3.39357433 Ha          92.34385604 eV
  | Electrostatic energy          :          -3.49710974 Ha         -95.16119765 eV
  | Energy correction for multipole
  | error in Hartree potential    :           0.00035001 Ha           0.00952439 eV
  | Sum of eigenvalues per atom                           :          -0.41408781 eV
  | Total energy (T->0) per atom                          :         -29.81857318 eV  <-- do not rely on this value for anything but (periodic) metals
  | Electronic free energy per atom                       :         -29.81857318 eV

  Self-consistency convergence accuracy:
  | Change of charge/spin density : 0.2164E+01 0.6353E+00
  | Change of sum of eigenvalues  : -.3772E+01 eV
  | Change of total energy        : 0.4325E+02 eV

  End self-consistency iteration #     6       :  max(cpu_time)    wall_clock(cpu1)
  | Time for this iteration                    :        0.023 s           0.022 s
  | Charge density update                      :        0.006 s           0.005 s
  | Density mixing                             :        0.001 s           0.001 s
  | Hartree multipole update                   :        0.001 s           0.002 s
  | Hartree multipole summation                :        0.004 s           0.004 s
  | Integration                                :        0.008 s           0.008 s
  | Solution of K.-S. eqns.                    :        0.001 s           0.001 s
  | Total energy evaluation                    :        0.000 s           0.000 s
------------------------------------------------------------

------------------------------------------------------------
          Begin self-consistency iteration #    7

  Date     :  20220120, Time     :  153324.554
------------------------------------------------------------
  Evaluating new KS density.
  Integration grid: deviation in total charge (<rho> - N_e) =  -1.252389E-08
  | <rho_up-rho_dn> = N_up-N_dn =      0.4674; <|rho_up-rho_dn|> =      0.9419
  Pulay mixing of updated and previous charge densities.

  Evaluating partitioned Hartree potential by multipole expansion.
  | Analytical far-field extrapolation by fixed multipoles:
  | Hartree multipole sum: apparent total charge =  -0.318330E-04
  Summing up the Hartree potential.
  Time summed over all CPUs for potential: real work        0.030 s, elapsed        0.030 s
  | RMS charge density error from multipole expansion :   0.416622E-02

  Integrating Hamiltonian matrix: batch-based integration.
  Time summed over all CPUs for integration: real work        0.064 s, elapsed        0.067 s

  Updating Kohn-Sham eigenvalues, eigenvectors, occupation numbers, and Fermi level.
  Solving generalized eigenproblem
  Solving real symmetric generalised eigenvalue problem by standard ScaLAPACK.
  Using Cholesky factor for transformation
  Using 1-stage real ELPA solver
  Solving real symmetric generalised eigenvalue problem by standard ScaLAPACK.
  Using Cholesky factor for transformation
  Using 1-stage real ELPA solver
  Determining occupation numbers for Kohn-Sham eigenstates.
  | Chemical potential (Fermi level) in eV                 : -.11211765E+02
  | Error in electron count due to remaining E_F inaccuracy: 0.00000000E+00
  | Maximum occupation number of highest empty state:  0.00E+00

  Current spin moment of the entire structure :
  | N = N_up - N_down :    0.00
  | S                 :    0.00
  | J                 :    1.00

  Highest occupied state (VBM) at    -13.52731611 eV
  | Occupation number:      1.00000000
  | Spin channel:        1

  Lowest unoccupied state (CBM) at    -0.28418999 eV
  | Occupation number:      0.00000000
  | Spin channel:        2

  Overall HOMO-LUMO gap:     13.24312612 eV.

  Total energy components:
  | Sum of eigenvalues            :          -1.00406946 Ha         -27.32212023 eV
  | XC energy correction          :          -0.85961370 Ha         -23.39127890 eV
  | XC potential correction       :           1.10175841 Ha          29.98037174 eV
  | Free-atom electrostatic energy:           0.26551836 Ha           7.22512217 eV
  | Hartree energy correction     :          -0.42566033 Ha         -11.58280691 eV
  | van der Waals energy corr.    :           0.00000000 Ha           0.00000000 eV
  | Entropy correction            :           0.00000000 Ha           0.00000000 eV
  | ---------------------------
  | Total energy                  :          -0.92206672 Ha         -25.09071213 eV
  | Total energy, T -> 0          :          -0.92206672 Ha         -25.09071213 eV  <-- do not rely on this value for anything but (periodic) metals
  | Electronic free energy        :          -0.92206672 Ha         -25.09071213 eV

  Derived energy quantities:
  | Kinetic energy                :           1.98094517 Ha          53.90426077 eV
  | Electrostatic energy          :          -2.04339820 Ha         -55.60369400 eV
  | Energy correction for multipole
  | error in Hartree potential    :           0.00016299 Ha           0.00443521 eV
  | Sum of eigenvalues per atom                           :         -13.66106012 eV
  | Total energy (T->0) per atom                          :         -12.54535606 eV  <-- do not rely on this value for anything but (periodic) metals
  | Electronic free energy per atom                       :         -12.54535606 eV

  Self-consistency convergence accuracy:
  | Change of charge/spin density : 0.1629E+01 0.2702E+00
  | Change of sum of eigenvalues  : -.2649E+02 eV
  | Change of total energy        : 0.3455E+02 eV

  End self-consistency iteration #     7       :  max(cpu_time)    wall_clock(cpu1)
  | Time for this iteration                    :        0.023 s           0.023 s
  | Charge density update                      :        0.006 s           0.005 s
  | Density mixing                             :        0.001 s           0.001 s
  | Hartree multipole update                   :        0.001 s           0.002 s
  | Hartree multipole summation                :        0.004 s           0.004 s
  | Integration                                :        0.008 s           0.008 s
  | Solution of K.-S. eqns.                    :        0.001 s           0.002 s
  | Total energy evaluation                    :        0.000 s           0.000 s
------------------------------------------------------------

------------------------------------------------------------
          Begin self-consistency iteration #    8

  Date     :  20220120, Time     :  153324.580
------------------------------------------------------------
  Evaluating new KS density.
  Integration grid: deviation in total charge (<rho> - N_e) =   9.319562E-08
  | <rho_up-rho_dn> = N_up-N_dn =      0.1650; <|rho_up-rho_dn|> =      0.2240
  Pulay mixing of updated and previous charge densities.

  Evaluating partitioned Hartree potential by multipole expansion.
  | Analytical far-field extrapolation by fixed multipoles:
  | Hartree multipole sum: apparent total charge =  -0.260858E-04
  Summing up the Hartree potential.
  Time summed over all CPUs for potential: real work        0.030 s, elapsed        0.030 s
  | RMS charge density error from multipole expansion :   0.443529E-02

  Integrating Hamiltonian matrix: batch-based integration.
  Time summed over all CPUs for integration: real work        0.065 s, elapsed        0.068 s

  Updating Kohn-Sham eigenvalues, eigenvectors, occupation numbers, and Fermi level.
  Solving generalized eigenproblem
  Solving real symmetric generalised eigenvalue problem by standard ScaLAPACK.
  Using Cholesky factor for transformation
  Using 1-stage real ELPA solver
  Solving real symmetric generalised eigenvalue problem by standard ScaLAPACK.
  Using Cholesky factor for transformation
  Using 1-stage real ELPA solver
  Determining occupation numbers for Kohn-Sham eigenstates.
  | Chemical potential (Fermi level) in eV                 : -.10475525E+02
  | Error in electron count due to remaining E_F inaccuracy: 0.00000000E+00
  | Maximum occupation number of highest empty state:  0.00E+00

  Current spin moment of the entire structure :
  | N = N_up - N_down :    0.00
  | S                 :    0.00
  | J                 :    1.00

  Highest occupied state (VBM) at    -12.78491986 eV
  | Occupation number:      1.00000000
  | Spin channel:        2

  Lowest unoccupied state (CBM) at    -0.15965490 eV
  | Occupation number:      0.00000000
  | Spin channel:        1

  Overall HOMO-LUMO gap:     12.62526496 eV.

  Total energy components:
  | Sum of eigenvalues            :          -0.94657328 Ha         -25.75756937 eV
  | XC energy correction          :          -0.89139723 Ha         -24.25615274 eV
  | XC potential correction       :           1.14281204 Ha          31.09749777 eV
  | Free-atom electrostatic energy:           0.26551836 Ha           7.22512217 eV
  | Hartree energy correction     :          -0.49900348 Ha         -13.57857548 eV
  | van der Waals energy corr.    :           0.00000000 Ha           0.00000000 eV
  | Entropy correction            :           0.00000000 Ha           0.00000000 eV
  | ---------------------------
  | Total energy                  :          -0.92864358 Ha         -25.26967764 eV
  | Total energy, T -> 0          :          -0.92864358 Ha         -25.26967764 eV  <-- do not rely on this value for anything but (periodic) metals
  | Electronic free energy        :          -0.92864358 Ha         -25.26967764 eV

  Derived energy quantities:
  | Kinetic energy                :           2.07720196 Ha          56.52354113 eV
  | Electrostatic energy          :          -2.11444831 Ha         -57.53706603 eV
  | Energy correction for multipole
  | error in Hartree potential    :           0.00017228 Ha           0.00468789 eV
  | Sum of eigenvalues per atom                           :         -12.87878469 eV
  | Total energy (T->0) per atom                          :         -12.63483882 eV  <-- do not rely on this value for anything but (periodic) metals
  | Electronic free energy per atom                       :         -12.63483882 eV

  Self-consistency convergence accuracy:
  | Change of charge/spin density : 0.1451E+00 0.5266E-01
  | Change of sum of eigenvalues  : 0.1565E+01 eV
  | Change of total energy        : -.1790E+00 eV

  End self-consistency iteration #     8       :  max(cpu_time)    wall_clock(cpu1)
  | Time for this iteration                    :        0.024 s           0.023 s
  | Charge density update                      :        0.006 s           0.005 s
  | Density mixing                             :        0.002 s           0.002 s
  | Hartree multipole update                   :        0.001 s           0.001 s
  | Hartree multipole summation                :        0.004 s           0.004 s
  | Integration                                :        0.009 s           0.009 s
  | Solution of K.-S. eqns.                    :        0.001 s           0.001 s
  | Total energy evaluation                    :        0.000 s           0.000 s
------------------------------------------------------------

------------------------------------------------------------
          Begin self-consistency iteration #    9

  Date     :  20220120, Time     :  153324.608
------------------------------------------------------------
  Evaluating new KS density.
  Integration grid: deviation in total charge (<rho> - N_e) =   1.702143E-07
  | <rho_up-rho_dn> = N_up-N_dn =     -0.0468; <|rho_up-rho_dn|> =      0.1356
  Pulay mixing of updated and previous charge densities.

  Evaluating partitioned Hartree potential by multipole expansion.
  | Analytical far-field extrapolation by fixed multipoles:
  | Hartree multipole sum: apparent total charge =  -0.216003E-04
  Summing up the Hartree potential.
  Time summed over all CPUs for potential: real work        0.030 s, elapsed        0.030 s
  | RMS charge density error from multipole expansion :   0.504469E-02

  Integrating Hamiltonian matrix: batch-based integration.
  Time summed over all CPUs for integration: real work        0.064 s, elapsed        0.067 s

  Updating Kohn-Sham eigenvalues, eigenvectors, occupation numbers, and Fermi level.
  Solving generalized eigenproblem
  Solving real symmetric generalised eigenvalue problem by standard ScaLAPACK.
  Using Cholesky factor for transformation
  Using 1-stage real ELPA solver
  Solving real symmetric generalised eigenvalue problem by standard ScaLAPACK.
  Using Cholesky factor for transformation
  Using 1-stage real ELPA solver
  Determining occupation numbers for Kohn-Sham eigenstates.
  | Chemical potential (Fermi level) in eV                 : -.89762001E+01
  | Error in electron count due to remaining E_F inaccuracy: 0.00000000E+00
  | Maximum occupation number of highest empty state:  0.00E+00

  Current spin moment of the entire structure :
  | N = N_up - N_down :    0.00
  | S                 :    0.00
  | J                 :    1.00

  Highest occupied state (VBM) at    -11.22688746 eV
  | Occupation number:      1.00000000
  | Spin channel:        2

  Lowest unoccupied state (CBM) at     0.07337358 eV
  | Occupation number:      0.00000000
  | Spin channel:        1

  Overall HOMO-LUMO gap:     11.30026104 eV.

  Total energy components:
  | Sum of eigenvalues            :          -0.83203432 Ha         -22.64080584 eV
  | XC energy correction          :          -0.95439615 Ha         -25.97044047 eV
  | XC potential correction       :           1.22434039 Ha          33.31599706 eV
  | Free-atom electrostatic energy:           0.26551836 Ha           7.22512217 eV
  | Hartree energy correction     :          -0.63484776 Ha         -17.27508649 eV
  | van der Waals energy corr.    :           0.00000000 Ha           0.00000000 eV
  | Entropy correction            :           0.00000000 Ha           0.00000000 eV
  | ---------------------------
  | Total energy                  :          -0.93141948 Ha         -25.34521358 eV
  | Total energy, T -> 0          :          -0.93141948 Ha         -25.34521358 eV  <-- do not rely on this value for anything but (periodic) metals
  | Electronic free energy        :          -0.93141948 Ha         -25.34521358 eV

  Derived energy quantities:
  | Kinetic energy                :           2.28122501 Ha          62.07529093 eV
  | Electrostatic energy          :          -2.25824835 Ha         -61.45006403 eV
  | Energy correction for multipole
  | error in Hartree potential    :           0.00019451 Ha           0.00529279 eV
  | Sum of eigenvalues per atom                           :         -11.32040292 eV
  | Total energy (T->0) per atom                          :         -12.67260679 eV  <-- do not rely on this value for anything but (periodic) metals
  | Electronic free energy per atom                       :         -12.67260679 eV

  Self-consistency convergence accuracy:
  | Change of charge/spin density : 0.1849E+00 0.7263E-01
  | Change of sum of eigenvalues  : 0.3117E+01 eV
  | Change of total energy        : -.7554E-01 eV

  End self-consistency iteration #     9       :  max(cpu_time)    wall_clock(cpu1)
  | Time for this iteration                    :        0.027 s           0.023 s
  | Charge density update                      :        0.009 s           0.006 s
  | Density mixing                             :        0.002 s           0.001 s
  | Hartree multipole update                   :        0.001 s           0.001 s
  | Hartree multipole summation                :        0.004 s           0.005 s
  | Integration                                :        0.009 s           0.008 s
  | Solution of K.-S. eqns.                    :        0.001 s           0.001 s
  | Total energy evaluation                    :        0.000 s           0.000 s
------------------------------------------------------------

------------------------------------------------------------
          Begin self-consistency iteration #   10

  Date     :  20220120, Time     :  153324.633
------------------------------------------------------------
  Evaluating new KS density.
  Integration grid: deviation in total charge (<rho> - N_e) =   1.477680E-07
  | <rho_up-rho_dn> = N_up-N_dn =     -0.0309; <|rho_up-rho_dn|> =      0.1604
  Pulay mixing of updated and previous charge densities.

  Evaluating partitioned Hartree potential by multipole expansion.
  | Analytical far-field extrapolation by fixed multipoles:
  | Hartree multipole sum: apparent total charge =  -0.181418E-04
  Summing up the Hartree potential.
  Time summed over all CPUs for potential: real work        0.030 s, elapsed        0.030 s
  | RMS charge density error from multipole expansion :   0.545328E-02

  Integrating Hamiltonian matrix: batch-based integration.
  Time summed over all CPUs for integration: real work        0.063 s, elapsed        0.066 s

  Updating Kohn-Sham eigenvalues, eigenvectors, occupation numbers, and Fermi level.
  Solving generalized eigenproblem
  Solving real symmetric generalised eigenvalue problem by standard ScaLAPACK.
  Using Cholesky factor for transformation
  Using 1-stage real ELPA solver
  Solving real symmetric generalised eigenvalue problem by standard ScaLAPACK.
  Using Cholesky factor for transformation
  Using 1-stage real ELPA solver
  Determining occupation numbers for Kohn-Sham eigenstates.
  | Chemical potential (Fermi level) in eV                 : -.77843590E+01
  | Error in electron count due to remaining E_F inaccuracy: 0.00000000E+00
  | Maximum occupation number of highest empty state:  0.00E+00

  Current spin moment of the entire structure :
  | N = N_up - N_down :    0.00
  | S                 :    0.00
  | J                 :    1.00

  Highest occupied state (VBM) at     -9.96034258 eV
  | Occupation number:      1.00000000
  | Spin channel:        2

  Lowest unoccupied state (CBM) at     0.25202569 eV
  | Occupation number:      0.00000000
  | Spin channel:        1

  Overall HOMO-LUMO gap:     10.21236827 eV.

  Total energy components:
  | Sum of eigenvalues            :          -0.74018427 Ha         -20.14143867 eV
  | XC energy correction          :          -0.99922845 Ha         -27.19038956 eV
  | XC potential correction       :           1.28227796 Ha          34.89255861 eV
  | Free-atom electrostatic energy:           0.26551836 Ha           7.22512217 eV
  | Hartree energy correction     :          -0.73479685 Ha         -19.99483958 eV
  | van der Waals energy corr.    :           0.00000000 Ha           0.00000000 eV
  | Entropy correction            :           0.00000000 Ha           0.00000000 eV
  | ---------------------------
  | Total energy                  :          -0.92641325 Ha         -25.20898702 eV
  | Total energy, T -> 0          :          -0.92641325 Ha         -25.20898702 eV  <-- do not rely on this value for anything but (periodic) metals
  | Electronic free energy        :          -0.92641325 Ha         -25.20898702 eV

  Derived energy quantities:
  | Kinetic energy                :           2.42394102 Ha          65.95879097 eV
  | Electrostatic energy          :          -2.35112581 Ha         -63.97738843 eV
  | Energy correction for multipole
  | error in Hartree potential    :           0.00021009 Ha           0.00571680 eV
  | Sum of eigenvalues per atom                           :         -10.07071933 eV
  | Total energy (T->0) per atom                          :         -12.60449351 eV  <-- do not rely on this value for anything but (periodic) metals
  | Electronic free energy per atom                       :         -12.60449351 eV

  Self-consistency convergence accuracy:
  | Change of charge/spin density : 0.2635E+00 0.8319E-01
  | Change of sum of eigenvalues  : 0.2499E+01 eV
  | Change of total energy        : 0.1362E+00 eV

  End self-consistency iteration #    10       :  max(cpu_time)    wall_clock(cpu1)
  | Time for this iteration                    :        0.023 s           0.023 s
  | Charge density update                      :        0.006 s           0.005 s
  | Density mixing                             :        0.002 s           0.002 s
  | Hartree multipole update                   :        0.001 s           0.001 s
  | Hartree multipole summation                :        0.004 s           0.004 s
  | Integration                                :        0.008 s           0.009 s
  | Solution of K.-S. eqns.                    :        0.001 s           0.001 s
  | Total energy evaluation                    :        0.000 s           0.001 s
------------------------------------------------------------

------------------------------------------------------------
          Begin self-consistency iteration #   11

  Date     :  20220120, Time     :  153324.660
------------------------------------------------------------
  Evaluating new KS density.
  Integration grid: deviation in total charge (<rho> - N_e) =   1.272685E-07
  | <rho_up-rho_dn> = N_up-N_dn =     -0.0015; <|rho_up-rho_dn|> =      0.1870
  Pulay mixing of updated and previous charge densities.

  Evaluating partitioned Hartree potential by multipole expansion.
  | Analytical far-field extrapolation by fixed multipoles:
  | Hartree multipole sum: apparent total charge =  -0.433977E-04
  Summing up the Hartree potential.
  Time summed over all CPUs for potential: real work        0.030 s, elapsed        0.030 s
  | RMS charge density error from multipole expansion :   0.325680E-02

  Integrating Hamiltonian matrix: batch-based integration.
  Time summed over all CPUs for integration: real work        0.064 s, elapsed        0.068 s

  Updating Kohn-Sham eigenvalues, eigenvectors, occupation numbers, and Fermi level.
  Solving generalized eigenproblem
  Solving real symmetric generalised eigenvalue problem by standard ScaLAPACK.
  Using Cholesky factor for transformation
  Using 1-stage real ELPA solver
  Solving real symmetric generalised eigenvalue problem by standard ScaLAPACK.
  Using Cholesky factor for transformation
  Using 1-stage real ELPA solver
  Determining occupation numbers for Kohn-Sham eigenstates.
  | Chemical potential (Fermi level) in eV                 : -.14024054E+02
  | Error in electron count due to remaining E_F inaccuracy: 0.00000000E+00
  | Maximum occupation number of highest empty state:  0.00E+00

  Current spin moment of the entire structure :
  | N = N_up - N_down :    0.00
  | S                 :    0.00
  | J                 :    1.00

  Highest occupied state (VBM) at    -16.35487587 eV
  | Occupation number:      1.00000000
  | Spin channel:        2

  Lowest unoccupied state (CBM) at    -0.72056988 eV
  | Occupation number:      0.00000000
  | Spin channel:        1

  Overall HOMO-LUMO gap:     15.63430599 eV.

  Total energy components:
  | Sum of eigenvalues            :          -1.21459335 Ha         -33.05076670 eV
  | XC energy correction          :          -0.75685329 Ha         -20.59502594 eV
  | XC potential correction       :           0.96927503 Ha          26.37531558 eV
  | Free-atom electrostatic energy:           0.26551836 Ha           7.22512217 eV
  | Hartree energy correction     :          -0.20491603 Ha          -5.57604887 eV
  | van der Waals energy corr.    :           0.00000000 Ha           0.00000000 eV
  | Entropy correction            :           0.00000000 Ha           0.00000000 eV
  | ---------------------------
  | Total energy                  :          -0.94156928 Ha         -25.62140376 eV
  | Total energy, T -> 0          :          -0.94156928 Ha         -25.62140376 eV  <-- do not rely on this value for anything but (periodic) metals
  | Electronic free energy        :          -0.94156928 Ha         -25.62140376 eV

  Derived energy quantities:
  | Kinetic energy                :           1.60319773 Ha          43.62522996 eV
  | Electrostatic energy          :          -1.78791372 Ha         -48.65160778 eV
  | Energy correction for multipole
  | error in Hartree potential    :           0.00011351 Ha           0.00308873 eV
  | Sum of eigenvalues per atom                           :         -16.52538335 eV
  | Total energy (T->0) per atom                          :         -12.81070188 eV  <-- do not rely on this value for anything but (periodic) metals
[...]
  | Change of sum of eigenvalues  : 0.2144E-04 eV
  | Change of total energy        : -.9297E-08 eV

  End self-consistency iteration #    26       :  max(cpu_time)    wall_clock(cpu1)
  | Time for this iteration                    :        0.024 s           0.023 s
  | Charge density update                      :        0.006 s           0.005 s
  | Density mixing                             :        0.002 s           0.002 s
  | Hartree multipole update                   :        0.001 s           0.001 s
  | Hartree multipole summation                :        0.004 s           0.004 s
  | Integration                                :        0.009 s           0.009 s
  | Solution of K.-S. eqns.                    :        0.001 s           0.001 s
  | Total energy evaluation                    :        0.000 s           0.000 s
------------------------------------------------------------

------------------------------------------------------------
          Begin self-consistency iteration #   27

  Date     :  20220120, Time     :  153325.067
------------------------------------------------------------
  Evaluating new KS density.
  Integration grid: deviation in total charge (<rho> - N_e) =   2.772582E-11
  | <rho_up-rho_dn> = N_up-N_dn =     -0.0000; <|rho_up-rho_dn|> =      0.0000
  Pulay mixing of updated and previous charge densities.

  Evaluating partitioned Hartree potential by multipole expansion.
  | Analytical far-field extrapolation by fixed multipoles:
  | Hartree multipole sum: apparent total charge =   0.122838E-05
  Summing up the Hartree potential.
  Time summed over all CPUs for potential: real work        0.030 s, elapsed        0.030 s
  | RMS charge density error from multipole expansion :   0.313600E-02

  Integrating Hamiltonian matrix: batch-based integration.
  Time summed over all CPUs for integration: real work        0.064 s, elapsed        0.068 s

  Updating Kohn-Sham eigenvalues, eigenvectors, occupation numbers, and Fermi level.
  Solving generalized eigenproblem
  Solving real symmetric generalised eigenvalue problem by standard ScaLAPACK.
  Using Cholesky factor for transformation
  Using 1-stage real ELPA solver
  Solving real symmetric generalised eigenvalue problem by standard ScaLAPACK.
  Using Cholesky factor for transformation
  Using 1-stage real ELPA solver
  Determining occupation numbers for Kohn-Sham eigenstates.
  | Chemical potential (Fermi level) in eV                 : -.10919101E+02
  | Error in electron count due to remaining E_F inaccuracy: 0.00000000E+00
  | Maximum occupation number of highest empty state:  0.00E+00

  Current spin moment of the entire structure :
  | N = N_up - N_down :    0.00
  | S                 :    0.00
  | J                 :    1.00

  Highest occupied state (VBM) at    -12.68002762 eV
  | Occupation number:      1.00000000
  | Spin channel:        1

  Lowest unoccupied state (CBM) at     1.24060875 eV
  | Occupation number:      0.00000000
  | Spin channel:        2

  Overall HOMO-LUMO gap:     13.92063637 eV.

  Total energy components:
  | Sum of eigenvalues            :          -0.93196494 Ha         -25.36005635 eV
  | XC energy correction          :          -0.84254756 Ha         -22.92688552 eV
  | XC potential correction       :           1.08086412 Ha          29.41180922 eV
  | Free-atom electrostatic energy:           0.26551836 Ha           7.22512217 eV
  | Hartree energy correction     :          -0.50213936 Ha         -13.66390727 eV
  | van der Waals energy corr.    :           0.00000000 Ha           0.00000000 eV
  | Entropy correction            :           0.00000000 Ha           0.00000000 eV
  | ---------------------------
  | Total energy                  :          -0.93026938 Ha         -25.31391774 eV
  | Total energy, T -> 0          :          -0.93026938 Ha         -25.31391774 eV  <-- do not rely on this value for anything but (periodic) metals
  | Electronic free energy        :          -0.93026938 Ha         -25.31391774 eV

  Derived energy quantities:
  | Kinetic energy                :           1.69317586 Ha          46.07365944 eV
  | Electrostatic energy          :          -1.78089768 Ha         -48.46069166 eV
  | Energy correction for multipole
  | error in Hartree potential    :           0.00024644 Ha           0.00670601 eV
  | Sum of eigenvalues per atom                           :         -12.68002817 eV
  | Total energy (T->0) per atom                          :         -12.65695887 eV  <-- do not rely on this value for anything but (periodic) metals
  | Electronic free energy per atom                       :         -12.65695887 eV

  Self-consistency convergence accuracy:
  | Change of charge/spin density : 0.4113E-06 0.1839E-06
  | Change of sum of eigenvalues  : 0.2658E-04 eV
  | Change of total energy        : -.1292E-08 eV

  End self-consistency iteration #    27       :  max(cpu_time)    wall_clock(cpu1)
  | Time for this iteration                    :        0.026 s           0.023 s
  | Charge density update                      :        0.008 s           0.005 s
  | Density mixing                             :        0.002 s           0.002 s
  | Hartree multipole update                   :        0.001 s           0.001 s
  | Hartree multipole summation                :        0.004 s           0.005 s
  | Integration                                :        0.009 s           0.008 s
  | Solution of K.-S. eqns.                    :        0.001 s           0.001 s
  | Total energy evaluation                    :        0.000 s           0.000 s
------------------------------------------------------------

------------------------------------------------------------
          Begin self-consistency iteration #   28

  Date     :  20220120, Time     :  153325.092
------------------------------------------------------------
  Evaluating new KS density.
  Integration grid: deviation in total charge (<rho> - N_e) =   3.100631E-12
  | <rho_up-rho_dn> = N_up-N_dn =      0.0000; <|rho_up-rho_dn|> =      0.0000
  Pulay mixing of updated and previous charge densities.

  Evaluating partitioned Hartree potential by multipole expansion.
  | Analytical far-field extrapolation by fixed multipoles:
  | Hartree multipole sum: apparent total charge =   0.122827E-05
  Summing up the Hartree potential.
  Time summed over all CPUs for potential: real work        0.030 s, elapsed        0.030 s
  | RMS charge density error from multipole expansion :   0.313600E-02

  Integrating Hamiltonian matrix: batch-based integration.
  Time summed over all CPUs for integration: real work        0.064 s, elapsed        0.068 s

  Updating Kohn-Sham eigenvalues, eigenvectors, occupation numbers, and Fermi level.
  Solving generalized eigenproblem
  Solving real symmetric generalised eigenvalue problem by standard ScaLAPACK.
  Using Cholesky factor for transformation
  Using 1-stage real ELPA solver
  Solving real symmetric generalised eigenvalue problem by standard ScaLAPACK.
  Using Cholesky factor for transformation
  Using 1-stage real ELPA solver
  Determining occupation numbers for Kohn-Sham eigenstates.
  | Chemical potential (Fermi level) in eV                 : -.10919690E+02
  | Error in electron count due to remaining E_F inaccuracy: 0.00000000E+00
  | Maximum occupation number of highest empty state:  0.00E+00

  Current spin moment of the entire structure :
  | N = N_up - N_down :    0.00
  | S                 :    0.00
  | J                 :    1.00

  Highest occupied state (VBM) at    -12.68003287 eV
  | Occupation number:      1.00000000
  | Spin channel:        1

  Lowest unoccupied state (CBM) at     1.24042471 eV
  | Occupation number:      0.00000000
  | Spin channel:        2

  Overall HOMO-LUMO gap:     13.92045758 eV.

  Total energy components:
  | Sum of eigenvalues            :          -0.93196530 Ha         -25.36006604 eV
  | XC energy correction          :          -0.84254740 Ha         -22.92688123 eV
  | XC potential correction       :           1.08086392 Ha          29.41180365 eV
  | Free-atom electrostatic energy:           0.26551836 Ha           7.22512217 eV
  | Hartree energy correction     :          -0.50213896 Ha         -13.66389630 eV
  | van der Waals energy corr.    :           0.00000000 Ha           0.00000000 eV
  | Entropy correction            :           0.00000000 Ha           0.00000000 eV
  | ---------------------------
  | Total energy                  :          -0.93026938 Ha         -25.31391774 eV
  | Total energy, T -> 0          :          -0.93026938 Ha         -25.31391774 eV  <-- do not rely on this value for anything but (periodic) metals
  | Electronic free energy        :          -0.93026938 Ha         -25.31391774 eV

  Derived energy quantities:
  | Kinetic energy                :           1.69317548 Ha          46.07364905 eV
  | Electrostatic energy          :          -1.78089746 Ha         -48.46068556 eV
  | Energy correction for multipole
  | error in Hartree potential    :           0.00024644 Ha           0.00670601 eV
  | Sum of eigenvalues per atom                           :         -12.68003302 eV
  | Total energy (T->0) per atom                          :         -12.65695887 eV  <-- do not rely on this value for anything but (periodic) metals
  | Electronic free energy per atom                       :         -12.65695887 eV

  Self-consistency convergence accuracy:
  | Change of charge/spin density : 0.1454E-06 0.8339E-07
  | Change of sum of eigenvalues  : -.9689E-05 eV
  | Change of total energy        : -.1885E-09 eV

  Writing Kohn-Sham eigenvalues.

  Spin-up eigenvalues:

  State    Occupation    Eigenvalue [Ha]    Eigenvalue [eV]
      1       1.00000          -0.465983          -12.68003
      2       0.00000           0.045589            1.24054
      3       0.00000           0.053043            1.44338
      4       0.00000           0.225722            6.14222
      5       0.00000           0.344426            9.37230
      6       0.00000           0.358464            9.75429
      7       0.00000           0.358464            9.75429
      8       0.00000           0.752194           20.46825
      9       0.00000           0.754994           20.54444
     10       0.00000           0.754994           20.54444
     11       0.00000           0.827784           22.52514

  Spin-down eigenvalues:

  State    Occupation    Eigenvalue [Ha]    Eigenvalue [eV]
      1       1.00000          -0.465983          -12.68003
      2       0.00000           0.045585            1.24042
      3       0.00000           0.053037            1.44321
      4       0.00000           0.225716            6.14206
      5       0.00000           0.344421            9.37217
      6       0.00000           0.358464            9.75429
      7       0.00000           0.358464            9.75429
      8       0.00000           0.752193           20.46821
      9       0.00000           0.754994           20.54444
     10       0.00000           0.754994           20.54444
     11       0.00000           0.827784           22.52514

  Current spin moment of the entire structure :
  | N = N_up - N_down :    0.00
  | S                 :    0.00
  | J                 :    1.00

  Highest occupied state (VBM) at    -12.68003287 eV
  | Occupation number:      1.00000000
  | Spin channel:        1

  Lowest unoccupied state (CBM) at     1.24042471 eV
  | Occupation number:      0.00000000
  | Spin channel:        2

  Overall HOMO-LUMO gap:     13.92045758 eV.

  Self-consistency cycle converged.

  End self-consistency iteration #    28       :  max(cpu_time)    wall_clock(cpu1)
  | Time for this iteration                    :        0.024 s           0.024 s
  | Charge density update                      :        0.006 s           0.005 s
  | Density mixing                             :        0.002 s           0.002 s
  | Hartree multipole update                   :        0.001 s           0.001 s
  | Hartree multipole summation                :        0.004 s           0.005 s
  | Integration                                :        0.009 s           0.008 s
  | Solution of K.-S. eqns.                    :        0.001 s           0.001 s
  | Total energy evaluation                    :        0.000 s           0.000 s
------------------------------------------------------------
  Obtaining max. number of non-zero basis functions in each batch .
  Evaluating KS electron density on previously omitted grid points.
  Evaluating non-empirical van der Waals correction (Tkatchenko/Scheffler 2009).
  Performing Hirshfeld analysis of fragment charges and moments.
  ----------------------------------------------------------------------
  | Atom     1: H
  |   Hirshfeld charge        :     -0.00000286
  |   Free atom volume        :     10.31539447
  |   Hirshfeld volume        :      3.53375829
  |   Hirshfeld spin moment   :     -0.00000017
  |   Hirshfeld dipole vector :      0.00000000       0.00000000      -0.05492158
  |   Hirshfeld dipole moment :      0.05492158
  |   Hirshfeld second moments:      0.17722096      -0.00000000      -0.00000000
  |                                 -0.00000000       0.17722096       0.00000000
  |                                 -0.00000000       0.00000000       0.17086634
  ----------------------------------------------------------------------
  | Atom     2: H
  |   Hirshfeld charge        :     -0.00000286
  |   Free atom volume        :     10.31539447
  |   Hirshfeld volume        :      3.53375829
  |   Hirshfeld spin moment   :     -0.00000017
  |   Hirshfeld dipole vector :      0.00000000       0.00000000       0.05492158
  |   Hirshfeld dipole moment :      0.05492158
  |   Hirshfeld second moments:      0.17722096      -0.00000000      -0.00000000
  |                                 -0.00000000       0.17722096       0.00000000
  |                                 -0.00000000       0.00000000       0.17086634
  ----------------------------------------------------------------------


  Total energy components:
  | Sum of eigenvalues            :          -0.93196530 Ha         -25.36006604 eV
  | XC energy correction          :          -0.84254740 Ha         -22.92688123 eV
  | XC potential correction       :           1.08086392 Ha          29.41180365 eV
  | Free-atom electrostatic energy:           0.26551836 Ha           7.22512217 eV
  | Hartree energy correction     :          -0.50213896 Ha         -13.66389630 eV
  | van der Waals energy corr.    :          -0.00000039 Ha          -0.00001056 eV
  | Entropy correction            :           0.00000000 Ha           0.00000000 eV
  | ---------------------------
  | Total energy                  :          -0.93026977 Ha         -25.31392831 eV
  | Total energy, T -> 0          :          -0.93026977 Ha         -25.31392831 eV  <-- do not rely on this value for anything but (periodic) metals
  | Electronic free energy        :          -0.93026977 Ha         -25.31392831 eV

  Derived energy quantities:
  | Kinetic energy                :           1.69317548 Ha          46.07364905 eV
  | Electrostatic energy          :          -1.78089746 Ha         -48.46068556 eV
  | Energy correction for multipole
  | error in Hartree potential    :           0.00024644 Ha           0.00670601 eV
  | Sum of eigenvalues per atom                           :         -12.68003302 eV
  | Total energy (T->0) per atom                          :         -12.65696415 eV  <-- do not rely on this value for anything but (periodic) metals
  | Electronic free energy per atom                       :         -12.65696415 eV
  Timings for VdW correction (Tkatchenko-Scheffler 2009 or later):
  | CPU time:        0.002 s, Wall clock time:        0.002 s.

  Energy and forces in a compact form:
  | Total energy uncorrected      :         -0.253139283060620E+02 eV
  | Total energy corrected        :         -0.253139283060620E+02 eV  <-- do not rely on this value for anything but (periodic) metals
  | Electronic free energy        :         -0.253139283060620E+02 eV

  ------------------------------------ 
  Start decomposition of the XC Energy 
  ------------------------------------ 
  Hartree-Fock part   :          0.000000000 Ha              0.000000000 eV
  ------------------------------------ 
  X Energy            :         -0.798713724 Ha            -21.734106247 eV
  C Energy GGA        :         -0.043833675 Ha             -1.192774984 eV
  Total XC Energy     :         -0.842547399 Ha            -22.926881231 eV
  LDA X and C from self-consistent density 
  X Energy LDA        :         -0.699350821 Ha            -19.030304099 eV
  C Energy LDA        :         -0.102755310 Ha             -2.796114249 eV
  ------------------------------------ 
  End decomposition of the XC Energy 
  ------------------------------------ 

------------------------------------------------------------------------------
  Final output of selected total energy values:

  The following output summarizes some interesting total energy values
  at the end of a run (AFTER all relaxation, molecular dynamics, etc.).

  | Total energy of the DFT / Hartree-Fock s.c.f. calculation      :            -25.313928306 eV
  | Final zero-broadening corrected energy (caution - metals only) :            -25.313928306 eV
  | For reference only, the value of 1 Hartree used in FHI-aims is :             27.211384500 eV

  Before relying on these values, please be sure to understand exactly which
  total energy value is referred to by a given number. Different objects may
  all carry the same name 'total energy'. Definitions:

  Total energy of the DFT / Hartree-Fock s.c.f. calculation:
  | Note that this energy does not include ANY quantities calculated after the
  | s.c.f. cycle, in particular not ANY RPA, MP2, etc. many-body perturbation terms.

  Final zero-broadening corrected energy:
  | For metallic systems only, a broadening of the occupation numbers at the Fermi
  | level can be extrapolated back to zero broadening by an electron-gas inspired
  | formula. For all systems that are not real metals, this value can be
  | meaningless and should be avoided.

------------------------------------------------------------------------------

------------------------------------------------------------
          Leaving FHI-aims.
          Date     :  20220120, Time     :  153325.125

          Computational steps:
          | Number of self-consistency cycles          :           28

          Detailed time accounting                     :  max(cpu_time)    wall_clock(cpu1)
          | Total time                                 :        0.822 s           0.909 s
          | Preparation time                           :        0.069 s           0.070 s
          | Grid partitioning                          :        0.006 s           0.006 s
          | Preloading free-atom quantities on grid    :        0.003 s           0.003 s
          | Free-atom superposition energy             :        0.002 s           0.002 s
          | Total time for integrations                :        0.245 s           0.248 s
          | Total time for solution of K.-S. equations :        0.042 s           0.042 s
          | Total time for density update              :        0.173 s           0.144 s
          | Total time for mixing                      :        0.043 s           0.044 s
          | Total time for Hartree multipole update    :        0.034 s           0.037 s
          | Total time for Hartree multipole sum       :        0.115 s           0.117 s
          | Total time for total energy evaluation     :        0.004 s           0.015 s
          | Total time for scaled ZORA corrections     :        0.000 s           0.000 s
          | Total time for vdW correction              :        0.002 s           0.002 s

          Have a nice day.
------------------------------------------------------------
