  MPI-parallelism will be employed.
------------------------------------------------------------
          Invoking FHI-aims ...
          Version 052014
          Git rev. (modified): 096c982 Merge branch master of fhiaims:/pub/localo[...]
          Compiled on 2016/12/16 at 15:22:01 on host login02.hpc.iitd.ac.in.

          When using FHI-aims, please cite the following reference:

          Volker Blum, Ralf Gehrke, Felix Hanke, Paula Havu,
          Ville Havu, Xinguo Ren, Karsten Reuter, and Matthias Scheffler,
          'Ab Initio Molecular Simulations with Numeric Atom-Centered Orbitals: FHI-aims',
          Computer Physics Communications 180, 2175-2196 (2009)

          For any questions about FHI-aims, please visit the aimsclub website
          with its forums and wiki. Contributions to both the forums and the
          wiki are warmly encouraged - they are for you, and everyone is welcome there.

------------------------------------------------------------

  Date     :  20220120, Time     :  152018.244
  Time zero on CPU 1             :   0.139420000000000E-01  s.
  Internal wall clock time zero  :           411924018.244  s.

  Using        8 parallel tasks.
  Task        0 on host csky019 reporting.
  Task        1 on host csky019 reporting.
  Task        2 on host csky019 reporting.
  Task        3 on host csky019 reporting.
  Task        4 on host csky019 reporting.
  Task        5 on host csky019 reporting.
  Task        6 on host csky019 reporting.
  Task        7 on host csky019 reporting.

  Performing system and environment tests:
  | Environment variable OMP_NUM_THREADS correctly set to 1.
  | Stacksize not measured: no C compiler
  | Checking for scalapack...
  | Testing pdtran()...
  | All pdtran() tests passed.

  Obtaining array dimensions for all initial allocations:
  
  -----------------------------------------------------------------------
  Parsing control.in (first pass over file, find array dimensions only).
  The contents of control.in will be repeated verbatim below
  unless switched off by setting 'verbatim_writeout .false.' .
  in the first line of control.in .
  -----------------------------------------------------------------------
  
    xc               pbe
    spin             collinear
    default_initial_moment hund
    relativistic     atomic_zora scalar 1e-9
    occupation_type  gaussian 0.001
    charge        0
    vdw_correction_hirshfeld
    KS_method        scalapack_fast
    mixer            pulay
    charge_mix_param  0.4
    spin_mix_param    0.6
    sc_accuracy_rho  1E-4
    sc_accuracy_eev  1E-5
    sc_accuracy_etot 1E-5
    sc_iter_limit    100
    empty_states     10
  ################################################################################
  #
  #  FHI-aims code project
  # Volker Blum, Fritz Haber Institute Berlin, 2009
  #
  #  Suggested "tight" defaults for H atom (to be pasted into control.in file)
  #
  ################################################################################
    species        H
  #     global species definitions
      nucleus             1
      mass                1.00794
  #
      l_hartree           6
  #
      cut_pot             4.0  2.0  1.0
      basis_dep_cutoff    1e-4
  #
      radial_base         24 7.0
      radial_multiplier   2
      angular_grids       specified
        division   0.1930   50
        division   0.3175  110
        division   0.4293  194
        division   0.5066  302
        division   0.5626  434
  #      division   0.5922  590
  #      division   0.6227  974
  #      division   0.6868 1202
  #      outer_grid  770
        outer_grid  434
  ################################################################################
  #
  #  Definition of "minimal" basis
  #
  ################################################################################
  #     valence basis states
      valence      1  s   1.
  #     ion occupancy
      ion_occ      1  s   0.5
  ################################################################################
  #
  #  Suggested additional basis functions. For production calculations,
  #  uncomment them one after another (the most important basis functions are
  #  listed first).
  #
  #  Basis constructed for dimers: 0.5 A, 0.7 A, 1.0 A, 1.5 A, 2.5 A
  #
  ################################################################################
  #  "First tier" - improvements: -1014.90 meV to -62.69 meV
       hydro 2 s 2.1
       hydro 2 p 3.5
  #  "Second tier" - improvements: -12.89 meV to -1.83 meV
       hydro 1 s 0.85
       hydro 2 p 3.7
       hydro 2 s 1.2
       hydro 3 d 7
  #  "Third tier" - improvements: -0.25 meV to -0.12 meV
  #     hydro 4 f 11.2
  #     hydro 3 p 4.8
  #     hydro 4 d 9
  #     hydro 3 s 3.2
  ################################################################################
  #
  # For methods that use the localized form of the "resolution of identity" for
  # the two-electron Coulomb operator (RI_method LVL), particularly Hartree-Fock and
  # hybrid density functional calculations, the highest accuracy can be obtained by
  # uncommenting the line beginning with "for_aux"  below, thus adding an extra g radial
  # function to the construction of the product basis set for the expansion.
  # See Ref. New J. Phys. 17, 093020 (2015) for more information, particularly Figs. 1 and 6.
  #
  ################################################################################
  #
  # for_aux hydro 5 g 6.0
  
  -----------------------------------------------------------------------
  Completed first pass over input file control.in .
  -----------------------------------------------------------------------
  
  
  -----------------------------------------------------------------------
  Parsing geometry.in (first pass over file, find array dimensions only).
  The contents of geometry.in will be repeated verbatim below
  unless switched off by setting 'verbatim_writeout .false.' .
  in the first line of geometry.in .
  -----------------------------------------------------------------------
  
  atom 0 0 0 H
  atom 0 0 0.32 H
  
  -----------------------------------------------------------------------
  Completed first pass over input file geometry.in .
  -----------------------------------------------------------------------
  

  Basic array size parameters:
  | Number of species                 :        1
  | Number of atoms                   :        2
  | Max. basis fn. angular momentum   :        2
  | Max. atomic/ionic basis occupied n:        1
  | Max. number of basis fn. types    :        2
  | Max. radial fns per species/type  :        6
  | Max. logarithmic grid size        :     1131
  | Max. radial integration grid size :       49
  | Max. angular integration grid size:      434
  | Max. angular grid division number :        8
  | Radial grid for Hartree potential :     1131
  | Number of spin channels           :        2

------------------------------------------------------------
          Reading file control.in.
------------------------------------------------------------
  XC: Using PBE gradient-corrected functionals.
  Spin treatment: Spin density functional theory - collinear spins.
  Initial spin moment per atom set according to Hund's rules.
  Scalar relativistic treatment of kinetic energy: on-site free-atom approximation to ZORA.
  Occupation type: Gaussian broadening, width =   0.100000E-02 eV.
  Charge =   0.000000E+00: Neutral system requested explicitly.
  Using non-empirical van der Waals correction (Hirshfeld partitioning):
  Kohn-Sham eigenvalues and eigenfunctions calculated by the ELPA eigensolver library.
  Using pulay charge density mixing.
  Charge density mixing - mixing parameter:     0.4000
  Spin density mixing - mixing parameter:     0.6000
  Convergence accuracy of self-consistent charge density: 0.1000E-03
  Convergence accuracy of sum of eigenvalues: 0.1000E-04
  Convergence accuracy of total energy: 0.1000E-04
  Maximum number of s.-c. iterations  :   100
  Number of empty states per atom:       10
 
  Reading configuration options for species H                   .
  | Found nuclear charge :   1.0000
  | Found atomic mass :    1.00794000000000      amu
  | Found l_max for Hartree potential  :   6
  | Found cutoff potl. onset [A], width [A], scale factor :    4.00000    2.00000    1.00000
  | Threshold for basis-dependent cutoff potential is   0.100000E-03
  | Found data for basic radial integration grid :    24 points, outermost radius =    7.000 A
  | Found multiplier for basic radial grid :   2
  | Found angular grid specification: user-specified.
  | Specified grid contains     6 separate shells.
  | Check grid settings after all constraints further below.
  | Found free-atom valence shell :  1 s   1.000
  | No ionic wave fns used. Skipping ion_occ.
  | Found hydrogenic basis function :  2 s   2.100
  | Found hydrogenic basis function :  2 p   3.500
  | Found hydrogenic basis function :  1 s   0.850
  | Found hydrogenic basis function :  2 p   3.700
  | Found hydrogenic basis function :  2 s   1.200
  | Found hydrogenic basis function :  3 d   7.000
  Species H                   : Missing cutoff potential type.
  Defaulting to exp(1/x)/(1-x)^2 type cutoff potential.
  Species H : No 'logarithmic' tag. Using default grid for free atom:
  | Default logarithmic grid data [bohr] : 0.1000E-03 0.1000E+03 0.1012E+01
  Species H : On-site basis accuracy parameter (for Gram-Schmidt orthonormalisation) not specified.
  Using default value basis_acc =  0.1000000E-03.
  Species H                   : Using default innermost maximum threshold i_radial=  2 for radial functions.
  Species H                   : Default cutoff onset for free atom density etc. : 0.40000000E+01 AA.
  Species H                   : Basic radial grid will be enhanced according to radial_multiplier =   2, to contain    49 grid points.
 
  Finished reading input file 'control.in'. Consistency checks are next.
 
  Target number of points in a grid batch is not set. Defaulting to  100
  Method for grid partitioning is not set. Defaulting to parallel hash+maxmin partitioning.
  Batch size limit is not set. Defaulting to    200
  By default, will store active basis functions for each batch.
  If in need of memory, prune_basis_once .false. can be used to disable this option.
  communication_type for Hartree potential was not specified.
  Defaulting to calc_hartree .
  Pulay mixer: Number of relevant iterations not set.
  Defaulting to    8 iterations.
  Pulay mixer: Number of initial linear mixing iterations not set.
  Defaulting to    0 iterations.
  Work space size for distributed Hartree potential not set.
  Defaulting to   0.200000E+03 MB.
  Algorithm-dependent basis array size parameters:
  | n_max_pulay                         :        8
  Calculation of forces was not defined in control.in. No forces will be calculated.
  Geometry relaxation not requested: no relaxation will be performed.
  No accuracy limit for integral partition fn. given. Defaulting to 0.1000E-14.
  No threshold value for u(r) in integrations given. Defaulting to 0.1000E-05.
  No accuracy for occupation numbers given. Defaulting to 0.1000E-07.
  No threshold value for occupation numbers given. Defaulting to 0.0000E+00.
  No accuracy for fermi level given. Defaulting to 0.1000E-19.
  Maximum # of iterations to find E_F not set. Defaulting to  200.
  Will not use alltoall communication since running on < 1024 CPUs.
  Threshold for basis singularities not set.
  Default threshold for basis singularities: 0.1000E-04
  partition_type (choice of integration weights) for integrals was not specified.
  | Using a version of the partition function of Stratmann and coworkers ('stratmann_smoother').
  | At each grid point, the set of atoms used to build the partition table is smoothly restricted to
  | only those atoms whose free-atom density would be non-zero at that grid point.
  Partitioning for Hartree potential was not defined. Using partition_type for integrals.
  | Adjusted default value of keyword multip_moments_threshold to:       0.10000000E-11
  | This value may affect high angular momentum components of the Hartree potential in periodic systems.
  No q(lm)/r^(l+1) cutoff set for long-range Hartree potential.
  | Using default value of  0.100000E-09 .
  | Verify using the multipole_threshold keyword.
  Defaulting to new monopole extrapolation.
  Density update method: automatic selection selected.
------------------------------------------------------------


------------------------------------------------------------
          Reading geometry description geometry.in.
------------------------------------------------------------
  Input structure read successfully.
  The structure contains        2 atoms,  and a total of          2.000 electrons.

  Input geometry:
  | No unit cell requested.
  | Atomic structure:
  |       Atom                x [A]            y [A]            z [A]
  |    1: Species H              0.000000         0.000000         0.000000
  |    2: Species H              0.000000         0.000000         0.320000
  |

  | The smallest distance between any two atoms is         0.32000000 AA.
  |
  | The first atom of this pair is atom number                      1 .
  | The second atom of this pair is atom number                     2 .

  Initial moments and charges:
  |  Atom   Moment         Charge        Species
  |     1  (Hund's rule)   0.000000E+00   H
  |     2  (Hund's rule)   0.000000E+00   H

  Structure-dependent array size parameters: 
  | Number of distinct atom types in initial rho :        1
  | Maximum number of distinct radial functions  :        7
  | Maximum number of basis functions            :       30
  | Number of Kohn-Sham states (occupied + empty):       11
------------------------------------------------------------

------------------------------------------------------------
          Preparing all fixed parts of the calculation.
------------------------------------------------------------
  Determining machine precision:
    2.225073858507201E-308
  Setting up grids for atomic and cluster calculations.

  Creating wave function, potential, and density for free atoms.

  Species: H

  List of occupied orbitals and eigenvalues:
    n    l              occ      energy [Ha]    energy [eV]
    1    0           1.0000        -0.238386        -6.4868

  Spin-polarized or charged system:
  Charge density initialized according to selected moments and charges.

  Creating spin-polarized density from free atoms.

  Species: H
  Charge:   0.000000
  applying Hund's rules ...

  List of occupied orbitals and eigenvalues:
    n    l      energy [Ha]    energy [eV]    occupation
  Spin-up
    1    0        -0.278991        -7.5917     1.00000000
  Spin-down
    1    0         0.090850         2.4721     0.00000000

  Creating fixed part of basis set: Ionic, confined, hydrogenic.
 
  H                    hydrogenic:
 
  List of hydrogenic basis orbitals: 
    n    l      effective z      eigenvalue [eV]  inner max. [A]     outer max. [A]     outer radius [A]   
    2    0         2.100000       -14.9965           0.193243           1.317208           5.373006
    2    1         3.500000       -41.6672           0.602369           0.602369           4.056063
    1    0         0.850000        -9.8292           0.624871           0.624871           5.373006
    2    1         3.700000       -46.5653           0.573622           0.573622           3.910002
    2    0         1.200000        -4.5995           0.334980           2.228188           5.505995
    3    2         7.000000       -74.0753           0.680699           0.680699           3.769201
 

  Adding cutoff potential to free-atom effective potential.
  Creating atomic-like basis functions for current effective potential.

  Species H                   :

  List of atomic basis orbitals and eigenvalues:
    n    l      energy [Ha]    energy [eV]    outer radius [A]
    1    0        -0.238386        -6.4868       5.373006

  Assembling full basis from fixed parts.
  | Species H :   atomic orbital   1 s accepted.
  | Species H :    hydro orbital   2 s accepted.
  | Species H :    hydro orbital   1 s accepted.
  | Species H :    hydro orbital   2 s accepted.
  | Species H :    hydro orbital   2 p accepted.
  | Species H :    hydro orbital   2 p accepted.
  | Species H :    hydro orbital   3 d accepted.
 
  Basis size parameters after reduction:
  | Total number of radial functions:        7
  | Total number of basis functions :       30
 
  Testing on-site integration grid accuracy.
  |  Species  Function  <phi|h_atom|phi> (log., in eV)  <phi|h_atom|phi> (rad., in eV)
           1        1                 -6.4870767962                 -6.4871688290
           1        2                 13.5032046589                 13.5028982997
           1        3                 32.8195184817                 32.8119941656
           1        4                 33.8513856511                 33.7670005767 ***
           1        5                 28.8544614965                 28.8544615203
           1        6                 59.6326952547                 59.6327656460
           1        7                 60.2719308513                 60.2719305949
 * Note: Onsite integrals marked "***" above are less accurate than
 * onsite_accuracy_threshold =    0.03000 eV. Usually, this is harmless.
 * When in doubt, tighten the "radial" and/or "radial_multiplier" flags to check.

  Preparing densities etc. for the partition functions (integrals / Hartree potential).

  Preparations completed.
  max(cpu_time)          :      0.086 s.
  Wall clock time (cpu1) :      0.085 s.
------------------------------------------------------------

------------------------------------------------------------
          Begin self-consistency loop: Initialization.

          Date     :  20220120, Time     :  152018.424
------------------------------------------------------------

  Initializing index lists of integration centers etc. from given atomic structure:
  | Number of centers in hartree potential         :         2
  | Number of centers in hartree multipole         :         2
  | Number of centers in electron density summation:         2
  | Number of centers in basis integrals           :         2
  | Number of centers in integrals                 :         2
  Using modified Scalapack Eigenvalue solver (ELPA)
  * Using 8 tasks for Scalapack Eigenvalue solver.
  Detailed listing of tasks and assigned k-points:
  (for non-periodic systems, the "k-point" denotes an internal label only)
   Task     0 k-point     1 on csky019
   Task     1 k-point     1 on csky019
   Task     2 k-point     1 on csky019
   Task     3 k-point     1 on csky019
   Task     4 k-point     1 on csky019
   Task     5 k-point     1 on csky019
   Task     6 k-point     1 on csky019
   Task     7 k-point     1 on csky019
  Tasks:     8 split into      4 X      2 BLACS grid
  Calculating blocksize based on n_basis =           30 max_nprow =            4 max_npcol =            2
  Scalapack blocksize set to:            4
  Required Scalapack workspace - INTEGER:            1 REAL:             1
  Partitioning the integration grid into batches with parallel hashing+maxmin method.
  | Number of batches:      442
  | Maximal batch size:     197
  | Minimal batch size:      49
  | Average batch size:      65.385
  | Standard deviation of batch sizes:      18.675

  Integration load balanced across     8 MPI tasks.
  Work distribution over tasks is as follows:
  Task     0 has       3643 integration points.
  Task     1 has       3583 integration points.
  Task     2 has       3624 integration points.
  Task     3 has       3580 integration points.
  Task     4 has       3677 integration points.
  Task     5 has       3590 integration points.
  Task     6 has       3615 integration points.
  Task     7 has       3588 integration points.
  Initializing partition tables, free-atom densities, potentials, etc. across the integration grid (initialize_grid_storage).
  | initialize_grid_storage: Actual outermost partition radius vs. multipole_radius_free
  | (-- VB: in principle, multipole_radius_free should be larger, hence this output)
  | Species        1: outer_partition_radius =              6.000000000000000 AA, multipole_radius_free =              6.071692442739658 AA.
  | Original list of interatomic distances with           2 x          2 entries is created.
  | Net number of integration points:    28900
  | of which are non-zero points    :    25584
  Obtaining max. number of non-zero basis functions in each batch (get_n_compute_maxes).
  | Maximal number of non-zero basis functions:       30 in task     0
  | Maximal number of non-zero basis functions:       30 in task     1
  | Maximal number of non-zero basis functions:       30 in task     2
  | Maximal number of non-zero basis functions:       30 in task     3
  | Maximal number of non-zero basis functions:       30 in task     4
  | Maximal number of non-zero basis functions:       30 in task     5
  | Maximal number of non-zero basis functions:       30 in task     6
  | Maximal number of non-zero basis functions:       30 in task     7
  Selecting the method for density update.
  Loop over occupied states selected for charge density update.
  Integrating Hamiltonian matrix: batch-based integration.
  Time summed over all CPUs for integration: real work        0.080 s, elapsed        0.085 s
  Integrating overlap matrix.
  Time summed over all CPUs for integration: real work        0.022 s, elapsed        0.029 s
  Deallocating overlap matrix.

  Updating Kohn-Sham eigenvalues, eigenvectors, occupation numbers, and Fermi level.
  Solving generalized eigenproblem
  Solving real symmetric generalised eigenvalue problem by standard ScaLAPACK.
  Transforming overlap matrix with ScaLAPACK and checking for singularities.
  : Overlap matrix is nonsingular, using Cholesky decomposition
  | Lowest eigenvalue:  0.332217E-04
  Factoring overlap matrix with Cholesky decomposition
  Using Cholesky factor for transformation
  Using 1-stage real ELPA solver
  Solving real symmetric generalised eigenvalue problem by standard ScaLAPACK.
  Using Cholesky factor for transformation
  Using 1-stage real ELPA solver
  Determining occupation numbers for Kohn-Sham eigenstates.
  | Chemical potential (Fermi level) in eV                 : -.23339150E-01
  | Error in electron count due to remaining E_F inaccuracy: 0.00000000E+00
  | Maximum occupation number of highest empty state:  0.00E+00

  Writing Kohn-Sham eigenvalues.

  Spin-up eigenvalues:

  State    Occupation    Eigenvalue [Ha]    Eigenvalue [eV]
      1       1.00000          -0.886941          -24.13490
      2       1.00000          -0.011250           -0.30614
      3       0.00000           0.000742            0.02020
      4       0.00000           0.152122            4.13945
      5       0.00000           0.200521            5.45645
      6       0.00000           0.200521            5.45645
      7       0.00000           0.246338            6.70320
      8       0.00000           0.623034           16.95363
      9       0.00000           0.628448           17.10094
     10       0.00000           0.628448           17.10094
     11       0.00000           0.705007           19.18423

  Spin-down eigenvalues:

  State    Occupation    Eigenvalue [Ha]    Eigenvalue [eV]
      1       0.00000           0.099209            2.69960
      2       0.00000           0.109165            2.97053
      3       0.00000           0.523955           14.25754
      4       0.00000           0.524471           14.27160
      5       0.00000           1.091219           29.69357
      6       0.00000           1.211459           32.96547
      7       0.00000           1.211459           32.96547
      8       0.00000           1.283664           34.93027
      9       0.00000           1.283664           34.93027
     10       0.00000           1.486759           40.45676
     11       0.00000           1.790687           48.72707

  Current spin moment of the entire structure :
  | N = N_up - N_down :    2.00
  | S                 :    1.00
  | J                 :    3.00

  Highest occupied state (VBM) at     -0.30613565 eV
  | Occupation number:      1.00000000
  | Spin channel:        1

  Lowest unoccupied state (CBM) at     0.02019746 eV
  | Occupation number:      0.00000000
  | Spin channel:        1

  Overall HOMO-LUMO gap:      0.32633311 eV.
  Calculating total energy contributions from superposition of free atom densities.

  Total energy components:
  | Sum of eigenvalues            :          -0.89819141 Ha         -24.44103186 eV
  | XC energy correction          :          -0.73178688 Ha         -19.91293425 eV
  | XC potential correction       :           0.94494026 Ha          25.71313268 eV
  | Free-atom electrostatic energy:           0.51757140 Ha          14.08383441 eV
  | Hartree energy correction     :           0.00000000 Ha           0.00000000 eV
  | van der Waals energy corr.    :           0.00000000 Ha           0.00000000 eV
  | Entropy correction            :           0.00000000 Ha           0.00000000 eV
  | ---------------------------
  | Total energy                  :          -0.16746664 Ha          -4.55699903 eV
  | Total energy, T -> 0          :          -0.16746664 Ha          -4.55699903 eV  <-- do not rely on this value for anything but (periodic) metals
  | Electronic free energy        :          -0.16746664 Ha          -4.55699903 eV

  Derived energy quantities:
  | Kinetic energy                :           1.30238354 Ha          35.43965940 eV
  | Electrostatic energy          :          -0.73806330 Ha         -20.08372418 eV
  | Energy correction for multipole
  | error in Hartree potential    :           0.00000000 Ha           0.00000000 eV
  | Sum of eigenvalues per atom                           :         -12.22051593 eV
  | Total energy (T->0) per atom                          :          -2.27849952 eV  <-- do not rely on this value for anything but (periodic) metals
  | Electronic free energy per atom                       :          -2.27849952 eV
  Initialize hartree_potential_storage
  Max. number of atoms included in rho_multipole:            2

  End scf initialization - timings             :  max(cpu_time)    wall_clock(cpu1)
  | Time for scf. initialization               :        0.044 s           0.044 s
  | Boundary condition initialization          :        0.000 s           0.000 s
  | Integration                                :        0.015 s           0.015 s
  | Solution of K.-S. eqns.                    :        0.009 s           0.010 s
  | Grid partitioning                          :        0.008 s           0.008 s
  | Preloading free-atom quantities on grid    :        0.004 s           0.004 s
  | Free-atom superposition energy             :        0.002 s           0.003 s
  | Total energy evaluation                    :        0.000 s           0.000 s
------------------------------------------------------------

------------------------------------------------------------
          Begin self-consistency iteration #    1

  Date     :  20220120, Time     :  152018.469
------------------------------------------------------------
  Evaluating new KS density.
  Integration grid: deviation in total charge (<rho> - N_e) =   6.710998E-07
  | <rho_up-rho_dn> = N_up-N_dn =      2.0000; <|rho_up-rho_dn|> =      2.5538
  Pulay mixing of updated and previous charge densities.

  Evaluating partitioned Hartree potential by multipole expansion.
  | Analytical far-field extrapolation by fixed multipoles:
  | Hartree multipole sum: apparent total charge =  -0.262555E-04
  Summing up the Hartree potential.
  Time summed over all CPUs for potential: real work        0.033 s, elapsed        0.034 s
  | RMS charge density error from multipole expansion :   0.820682E-03

  Integrating Hamiltonian matrix: batch-based integration.
  Time summed over all CPUs for integration: real work        0.065 s, elapsed        0.069 s

  Updating Kohn-Sham eigenvalues, eigenvectors, occupation numbers, and Fermi level.
  Solving generalized eigenproblem
  Solving real symmetric generalised eigenvalue problem by standard ScaLAPACK.
  Using Cholesky factor for transformation
  Using 1-stage real ELPA solver
  Solving real symmetric generalised eigenvalue problem by standard ScaLAPACK.
  Using Cholesky factor for transformation
  Using 1-stage real ELPA solver
  Determining occupation numbers for Kohn-Sham eigenstates.
  | Chemical potential (Fermi level) in eV                 : -.94721896E+01
  | Error in electron count due to remaining E_F inaccuracy: 0.00000000E+00
  | Maximum occupation number of highest empty state:  0.00E+00

  Writing Kohn-Sham eigenvalues.

  Spin-up eigenvalues:

  State    Occupation    Eigenvalue [Ha]    Eigenvalue [eV]
      1       1.00000          -0.648938          -17.65849
      2       0.00000           0.045872            1.24825
      3       0.00000           0.065860            1.79215
      4       0.00000           0.173170            4.71220
      5       0.00000           0.200976            5.46883
      6       0.00000           0.200976            5.46883
      7       0.00000           0.315729            8.59143
      8       0.00000           0.642650           17.48740
      9       0.00000           0.642650           17.48740
     10       0.00000           0.668753           18.19771
     11       0.00000           0.730483           19.87746

  Spin-down eigenvalues:

  State    Occupation    Eigenvalue [Ha]    Eigenvalue [eV]
      1       1.00000          -0.478246          -13.01373
      2       0.00000           0.069688            1.89631
      3       0.00000           0.073449            1.99864
      4       0.00000           0.218430            5.94379
      5       0.00000           0.304335            8.28139
      6       0.00000           0.304335            8.28139
      7       0.00000           0.354573            9.64844
      8       0.00000           0.705478           19.19702
      9       0.00000           0.705478           19.19702
     10       0.00000           0.750921           20.43359
     11       0.00000           0.802178           21.82836

  Current spin moment of the entire structure :
  | N = N_up - N_down :    0.00
  | S                 :    0.00
  | J                 :    1.00

  Highest occupied state (VBM) at    -13.01373270 eV
  | Occupation number:      1.00000000
  | Spin channel:        2

  Lowest unoccupied state (CBM) at     1.24824786 eV
  | Occupation number:      0.00000000
  | Spin channel:        1

  Overall HOMO-LUMO gap:     14.26198056 eV.

  Total energy components:
  | Sum of eigenvalues            :          -1.12718339 Ha         -30.67222068 eV
  | XC energy correction          :          -0.39850429 Ha         -10.84385343 eV
  | XC potential correction       :           0.50815275 Ha          13.82753997 eV
  | Free-atom electrostatic energy:           0.51757140 Ha          14.08383441 eV
  | Hartree energy correction     :           0.08642883 Ha           2.35184802 eV
  | van der Waals energy corr.    :           0.00000000 Ha           0.00000000 eV
  | Entropy correction            :           0.00000000 Ha           0.00000000 eV
  | ---------------------------
  | Total energy                  :          -0.41353470 Ha         -11.25285172 eV
  | Total energy, T -> 0          :          -0.41353470 Ha         -11.25285172 eV  <-- do not rely on this value for anything but (periodic) metals
  | Electronic free energy        :          -0.41353470 Ha         -11.25285172 eV

  Derived energy quantities:
  | Kinetic energy                :           0.87974747 Ha          23.93914680 eV
  | Electrostatic energy          :          -0.89477789 Ha         -24.34814508 eV
  | Energy correction for multipole
  | error in Hartree potential    :           0.00003585 Ha           0.00097548 eV
  | Sum of eigenvalues per atom                           :         -15.33611034 eV
  | Total energy (T->0) per atom                          :          -5.62642586 eV  <-- do not rely on this value for anything but (periodic) metals
  | Electronic free energy per atom                       :          -5.62642586 eV

  Self-consistency convergence accuracy:
  | Change of charge/spin density : 0.1559E+00 0.1559E+00
  | Change of sum of eigenvalues  : -.6231E+01 eV
  | Change of total energy        : -.6696E+01 eV

  End self-consistency iteration #     1       :  max(cpu_time)    wall_clock(cpu1)
  | Time for this iteration                    :        0.027 s           0.027 s
  | Charge density update                      :        0.007 s           0.007 s
  | Density mixing                             :        0.001 s           0.001 s
  | Hartree multipole update                   :        0.001 s           0.001 s
  | Hartree multipole summation                :        0.005 s           0.005 s
  | Integration                                :        0.009 s           0.009 s
  | Solution of K.-S. eqns.                    :        0.002 s           0.002 s
  | Total energy evaluation                    :        0.000 s           0.001 s
------------------------------------------------------------

------------------------------------------------------------
          Begin self-consistency iteration #    2

  Date     :  20220120, Time     :  152018.499
------------------------------------------------------------
  Evaluating new KS density.
  Integration grid: deviation in total charge (<rho> - N_e) =   4.026599E-07
  | <rho_up-rho_dn> = N_up-N_dn =     -2.0000; <|rho_up-rho_dn|> =      2.0000
  Pulay mixing of updated and previous charge densities.

  Evaluating partitioned Hartree potential by multipole expansion.
  | Analytical far-field extrapolation by fixed multipoles:
  | Hartree multipole sum: apparent total charge =  -0.236514E-04
  Summing up the Hartree potential.
  Time summed over all CPUs for potential: real work        0.032 s, elapsed        0.033 s
  | RMS charge density error from multipole expansion :   0.962516E-03

  Integrating Hamiltonian matrix: batch-based integration.
  Time summed over all CPUs for integration: real work        0.066 s, elapsed        0.069 s

  Updating Kohn-Sham eigenvalues, eigenvectors, occupation numbers, and Fermi level.
  Solving generalized eigenproblem
  Solving real symmetric generalised eigenvalue problem by standard ScaLAPACK.
  Using Cholesky factor for transformation
  Using 1-stage real ELPA solver
  Solving real symmetric generalised eigenvalue problem by standard ScaLAPACK.
  Using Cholesky factor for transformation
  Using 1-stage real ELPA solver
  Determining occupation numbers for Kohn-Sham eigenstates.
  | Chemical potential (Fermi level) in eV                 : -.14564063E+02
  | Error in electron count due to remaining E_F inaccuracy: 0.00000000E+00
  | Maximum occupation number of highest empty state:  0.00E+00

  Current spin moment of the entire structure :
  | N = N_up - N_down :    0.00
  | S                 :    0.00
  | J                 :    1.00

  Highest occupied state (VBM) at    -17.56330854 eV
  | Occupation number:      1.00000000
  | Spin channel:        2

  Lowest unoccupied state (CBM) at     1.02701779 eV
  | Occupation number:      0.00000000
  | Spin channel:        1

  Overall HOMO-LUMO gap:     18.59032632 eV.

  Total energy components:
  | Sum of eigenvalues            :          -1.52480982 Ha         -41.49218636 eV
  | XC energy correction          :          -0.62432111 Ha         -16.98864169 eV
  | XC potential correction       :           0.80296827 Ha          21.84987833 eV
  | Free-atom electrostatic energy:           0.51757140 Ha          14.08383441 eV
  | Hartree energy correction     :           0.04340367 Ha           1.18107391 eV
  | van der Waals energy corr.    :           0.00000000 Ha           0.00000000 eV
  | Entropy correction            :           0.00000000 Ha           0.00000000 eV
  | ---------------------------
  | Total energy                  :          -0.78518759 Ha         -21.36604141 eV
  | Total energy, T -> 0          :          -0.78518759 Ha         -21.36604141 eV  <-- do not rely on this value for anything but (periodic) metals
  | Electronic free energy        :          -0.78518759 Ha         -21.36604141 eV

  Derived energy quantities:
  | Kinetic energy                :           0.79733158 Ha          21.69649627 eV
  | Electrostatic energy          :          -0.95819807 Ha         -26.07389598 eV
  | Energy correction for multipole
  | error in Hartree potential    :           0.00006326 Ha           0.00172140 eV
  | Sum of eigenvalues per atom                           :         -20.74609318 eV
  | Total energy (T->0) per atom                          :         -10.68302070 eV  <-- do not rely on this value for anything but (periodic) metals
  | Electronic free energy per atom                       :         -10.68302070 eV

  Self-consistency convergence accuracy:
  | Change of charge/spin density : 0.1862E+00 0.3725E+00
  | Change of sum of eigenvalues  : -.1082E+02 eV
  | Change of total energy        : -.1011E+02 eV

  End self-consistency iteration #     2       :  max(cpu_time)    wall_clock(cpu1)
  | Time for this iteration                    :        0.025 s           0.024 s
  | Charge density update                      :        0.006 s           0.006 s
  | Density mixing                             :        0.001 s           0.001 s
  | Hartree multipole update                   :        0.001 s           0.001 s
  | Hartree multipole summation                :        0.005 s           0.005 s
  | Integration                                :        0.009 s           0.009 s
  | Solution of K.-S. eqns.                    :        0.001 s           0.001 s
  | Total energy evaluation                    :        0.000 s           0.000 s
------------------------------------------------------------

------------------------------------------------------------
          Begin self-consistency iteration #    3

  Date     :  20220120, Time     :  152018.529
------------------------------------------------------------
  Evaluating new KS density.
  Integration grid: deviation in total charge (<rho> - N_e) =   3.654211E-07
  | <rho_up-rho_dn> = N_up-N_dn =     -1.7226; <|rho_up-rho_dn|> =      1.7226
  Pulay mixing of updated and previous charge densities.

  Evaluating partitioned Hartree potential by multipole expansion.
  | Analytical far-field extrapolation by fixed multipoles:
  | Hartree multipole sum: apparent total charge =  -0.260178E-04
  Summing up the Hartree potential.
  Time summed over all CPUs for potential: real work        0.033 s, elapsed        0.034 s
  | RMS charge density error from multipole expansion :   0.451036E-03

  Integrating Hamiltonian matrix: batch-based integration.
  Time summed over all CPUs for integration: real work        0.064 s, elapsed        0.067 s

  Updating Kohn-Sham eigenvalues, eigenvectors, occupation numbers, and Fermi level.
  Solving generalized eigenproblem
  Solving real symmetric generalised eigenvalue problem by standard ScaLAPACK.
  Using Cholesky factor for transformation
  Using 1-stage real ELPA solver
  Solving real symmetric generalised eigenvalue problem by standard ScaLAPACK.
  Using Cholesky factor for transformation
  Using 1-stage real ELPA solver
  Determining occupation numbers for Kohn-Sham eigenstates.
  | Chemical potential (Fermi level) in eV                 : -.10397010E+02
  | Error in electron count due to remaining E_F inaccuracy: 0.00000000E+00
  | Maximum occupation number of highest empty state:  0.00E+00

  Current spin moment of the entire structure :
  | N = N_up - N_down :    0.00
  | S                 :    0.00
  | J                 :    1.00

  Highest occupied state (VBM) at    -14.29280744 eV
  | Occupation number:      1.00000000
  | Spin channel:        2

  Lowest unoccupied state (CBM) at     0.88690120 eV
  | Occupation number:      0.00000000
  | Spin channel:        1

  Overall HOMO-LUMO gap:     15.17970865 eV.

  Total energy components:
  | Sum of eigenvalues            :          -1.21092585 Ha         -32.95096900 eV
  | XC energy correction          :          -0.42332343 Ha         -11.51921667 eV
  | XC potential correction       :           0.54110225 Ha          14.72414128 eV
  | Free-atom electrostatic energy:           0.51757140 Ha          14.08383441 eV
  | Hartree energy correction     :           0.11368524 Ha           3.09353271 eV
  | van der Waals energy corr.    :           0.00000000 Ha           0.00000000 eV
  | Entropy correction            :           0.00000000 Ha           0.00000000 eV
  | ---------------------------
  | Total energy                  :          -0.46189040 Ha         -12.56867727 eV
  | Total energy, T -> 0          :          -0.46189040 Ha         -12.56867727 eV  <-- do not rely on this value for anything but (periodic) metals
  | Electronic free energy        :          -0.46189040 Ha         -12.56867727 eV

  Derived energy quantities:
  | Kinetic energy                :           0.73347991 Ha          19.95900382 eV
  | Electrostatic energy          :          -0.77204688 Ha         -21.00846442 eV
  | Energy correction for multipole
  | error in Hartree potential    :           0.00000998 Ha           0.00027146 eV
  | Sum of eigenvalues per atom                           :         -16.47548450 eV
  | Total energy (T->0) per atom                          :          -6.28433863 eV  <-- do not rely on this value for anything but (periodic) metals
  | Electronic free energy per atom                       :          -6.28433863 eV

  Self-consistency convergence accuracy:
  | Change of charge/spin density : 0.3415E+00 0.2967E+00
  | Change of sum of eigenvalues  : 0.8541E+01 eV
  | Change of total energy        : 0.8797E+01 eV

  End self-consistency iteration #     3       :  max(cpu_time)    wall_clock(cpu1)
  | Time for this iteration                    :        0.029 s           0.024 s
  | Charge density update                      :        0.010 s           0.006 s
  | Density mixing                             :        0.001 s           0.001 s
  | Hartree multipole update                   :        0.001 s           0.001 s
  | Hartree multipole summation                :        0.005 s           0.005 s
  | Integration                                :        0.009 s           0.009 s
  | Solution of K.-S. eqns.                    :        0.001 s           0.001 s
  | Total energy evaluation                    :        0.000 s           0.000 s
------------------------------------------------------------

------------------------------------------------------------
          Begin self-consistency iteration #    4

  Date     :  20220120, Time     :  152018.559
------------------------------------------------------------
  Evaluating new KS density.
  Integration grid: deviation in total charge (<rho> - N_e) =   3.907697E-07
  | <rho_up-rho_dn> = N_up-N_dn =     -1.8781; <|rho_up-rho_dn|> =      1.8781
  Pulay mixing of updated and previous charge densities.

  Evaluating partitioned Hartree potential by multipole expansion.
  | Analytical far-field extrapolation by fixed multipoles:
  | Hartree multipole sum: apparent total charge =  -0.326826E-04
  Summing up the Hartree potential.
  Time summed over all CPUs for potential: real work        0.032 s, elapsed        0.033 s
  | RMS charge density error from multipole expansion :   0.594175E-02

  Integrating Hamiltonian matrix: batch-based integration.
  Time summed over all CPUs for integration: real work        0.064 s, elapsed        0.067 s

  Updating Kohn-Sham eigenvalues, eigenvectors, occupation numbers, and Fermi level.
  Solving generalized eigenproblem
  Solving real symmetric generalised eigenvalue problem by standard ScaLAPACK.
  Using Cholesky factor for transformation
  Using 1-stage real ELPA solver
  Solving real symmetric generalised eigenvalue problem by standard ScaLAPACK.
  Using Cholesky factor for transformation
  Using 1-stage real ELPA solver
  Determining occupation numbers for Kohn-Sham eigenstates.
  | Chemical potential (Fermi level) in eV                 : -.23994196E+02
  | Error in electron count due to remaining E_F inaccuracy: 0.00000000E+00
  | Maximum occupation number of highest empty state:  0.00E+00

  Current spin moment of the entire structure :
  | N = N_up - N_down :    0.00
  | S                 :    0.00
  | J                 :    1.00

  Highest occupied state (VBM) at    -25.63461501 eV
  | Occupation number:      1.00000000
  | Spin channel:        2

  Lowest unoccupied state (CBM) at    -1.03224451 eV
  | Occupation number:      0.00000000
  | Spin channel:        1

  Overall HOMO-LUMO gap:     24.60237051 eV.

  Total energy components:
  | Sum of eigenvalues            :          -1.94249475 Ha         -52.85797160 eV
  | XC energy correction          :          -0.52869937 Ha         -14.38664183 eV
  | XC potential correction       :           0.67868612 Ha          18.46798895 eV
  | Free-atom electrostatic energy:           0.51757140 Ha          14.08383441 eV
  | Hartree energy correction     :           0.31201343 Ha           8.49031750 eV
  | van der Waals energy corr.    :           0.00000000 Ha           0.00000000 eV
  | Entropy correction            :           0.00000000 Ha           0.00000000 eV
  | ---------------------------
  | Total energy                  :          -0.96292317 Ha         -26.20247257 eV
  | Total energy, T -> 0          :          -0.96292317 Ha         -26.20247257 eV  <-- do not rely on this value for anything but (periodic) metals
  | Electronic free energy        :          -0.96292317 Ha         -26.20247257 eV

  Derived energy quantities:
  | Kinetic energy                :          -1.79744121 Ha         -48.91086396 eV
  | Electrostatic energy          :           1.36321741 Ha          37.09503322 eV
  | Energy correction for multipole
  | error in Hartree potential    :          -0.00039278 Ha          -0.01068810 eV
  | Sum of eigenvalues per atom                           :         -26.42898580 eV
  | Total energy (T->0) per atom                          :         -13.10123628 eV  <-- do not rely on this value for anything but (periodic) metals
  | Electronic free energy per atom                       :         -13.10123628 eV

  Self-consistency convergence accuracy:
  | Change of charge/spin density : 0.2369E+00 0.3397E+00
  | Change of sum of eigenvalues  : -.1991E+02 eV
  | Change of total energy        : -.1363E+02 eV

  End self-consistency iteration #     4       :  max(cpu_time)    wall_clock(cpu1)
  | Time for this iteration                    :        0.028 s           0.024 s
  | Charge density update                      :        0.010 s           0.005 s
  | Density mixing                             :        0.001 s           0.001 s
  | Hartree multipole update                   :        0.001 s           0.002 s
  | Hartree multipole summation                :        0.004 s           0.004 s
  | Integration                                :        0.009 s           0.009 s
  | Solution of K.-S. eqns.                    :        0.001 s           0.002 s
  | Total energy evaluation                    :        0.000 s           0.001 s
------------------------------------------------------------

------------------------------------------------------------
          Begin self-consistency iteration #    5

  Date     :  20220120, Time     :  152018.584
------------------------------------------------------------
  Evaluating new KS density.
  Integration grid: deviation in total charge (<rho> - N_e) =   3.745076E-07
  | <rho_up-rho_dn> = N_up-N_dn =     -1.5668; <|rho_up-rho_dn|> =      1.5668
  Pulay mixing of updated and previous charge densities.

  Evaluating partitioned Hartree potential by multipole expansion.
  | Analytical far-field extrapolation by fixed multipoles:
  | Hartree multipole sum: apparent total charge =   0.308600E-04
  Summing up the Hartree potential.
  Time summed over all CPUs for potential: real work        0.033 s, elapsed        0.033 s
  | RMS charge density error from multipole expansion :   0.271345E-01

  Integrating Hamiltonian matrix: batch-based integration.
  Time summed over all CPUs for integration: real work        0.061 s, elapsed        0.064 s

  Updating Kohn-Sham eigenvalues, eigenvectors, occupation numbers, and Fermi level.
  Solving generalized eigenproblem
  Solving real symmetric generalised eigenvalue problem by standard ScaLAPACK.
  Using Cholesky factor for transformation
  Using 1-stage real ELPA solver
  Solving real symmetric generalised eigenvalue problem by standard ScaLAPACK.
  Using Cholesky factor for transformation
  Using 1-stage real ELPA solver
  Determining occupation numbers for Kohn-Sham eigenstates.
  | Chemical potential (Fermi level) in eV                 : 0.24094989E+01
  | Error in electron count due to remaining E_F inaccuracy: 0.00000000E+00
  | Maximum occupation number of highest empty state:  0.00E+00

  Current spin moment of the entire structure :
  | N = N_up - N_down :    0.00
  | S                 :    0.00
  | J                 :    1.00

  Highest occupied state (VBM) at      1.96800137 eV
  | Occupation number:      1.00000000
  | Spin channel:        2
 * WARNING: The VBM is higher than the internal energy zero!

  Lowest unoccupied state (CBM) at     2.62941435 eV
  | Occupation number:      0.00000000
  | Spin channel:        1

  Overall HOMO-LUMO gap:      0.66141297 eV.

  Total energy components:
  | Sum of eigenvalues            :           0.14393427 Ha           3.91665064 eV
  | XC energy correction          :          -3.72361334 Ha        -101.32467439 eV
  | XC potential correction       :           4.82496585 Ha         131.29400091 eV
  | Free-atom electrostatic energy:           0.51757140 Ha          14.08383441 eV
  | Hartree energy correction     :          -7.77031473 Ha        -211.44102187 eV
  | van der Waals energy corr.    :           0.00000000 Ha           0.00000000 eV
  | Entropy correction            :           0.00000000 Ha           0.00000000 eV
  | ---------------------------
  | Total energy                  :          -6.00745656 Ha        -163.47121030 eV
  | Total energy, T -> 0          :          -6.00745656 Ha        -163.47121030 eV  <-- do not rely on this value for anything but (periodic) metals
  | Electronic free energy        :          -6.00745656 Ha        -163.47121030 eV

  Derived energy quantities:
  | Kinetic energy                :           1.08280725 Ha          29.46468437 eV
  | Electrostatic energy          :          -3.36665046 Ha         -91.61122028 eV
  | Energy correction for multipole
  | error in Hartree potential    :           0.00186235 Ha           0.05067721 eV
  | Sum of eigenvalues per atom                           :           1.95832532 eV
  | Total energy (T->0) per atom                          :         -81.73560515 eV  <-- do not rely on this value for anything but (periodic) metals
  | Electronic free energy per atom                       :         -81.73560515 eV

  Self-consistency convergence accuracy:
  | Change of charge/spin density : 0.1007E+01 0.2215E+00
  | Change of sum of eigenvalues  : 0.5677E+02 eV
  | Change of total energy        : -.1373E+03 eV

  End self-consistency iteration #     5       :  max(cpu_time)    wall_clock(cpu1)
  | Time for this iteration                    :        0.024 s           0.024 s
  | Charge density update                      :        0.006 s           0.006 s
  | Density mixing                             :        0.001 s           0.001 s
  | Hartree multipole update                   :        0.001 s           0.002 s
  | Hartree multipole summation                :        0.004 s           0.004 s
  | Integration                                :        0.008 s           0.009 s
  | Solution of K.-S. eqns.                    :        0.001 s           0.001 s
  | Total energy evaluation                    :        0.000 s           0.000 s
------------------------------------------------------------

------------------------------------------------------------
          Begin self-consistency iteration #    6

  Date     :  20220120, Time     :  152018.610
------------------------------------------------------------
  Evaluating new KS density.
  Integration grid: deviation in total charge (<rho> - N_e) =   1.620376E-08
  | <rho_up-rho_dn> = N_up-N_dn =     -0.1053; <|rho_up-rho_dn|> =      1.3259
  Pulay mixing of updated and previous charge densities.

  Evaluating partitioned Hartree potential by multipole expansion.
  | Analytical far-field extrapolation by fixed multipoles:
  | Hartree multipole sum: apparent total charge =   0.110269E-04
  Summing up the Hartree potential.
  Time summed over all CPUs for potential: real work        0.032 s, elapsed        0.033 s
  | RMS charge density error from multipole expansion :   0.194615E-01

  Integrating Hamiltonian matrix: batch-based integration.
  Time summed over all CPUs for integration: real work        0.065 s, elapsed        0.068 s

  Updating Kohn-Sham eigenvalues, eigenvectors, occupation numbers, and Fermi level.
  Solving generalized eigenproblem
  Solving real symmetric generalised eigenvalue problem by standard ScaLAPACK.
  Using Cholesky factor for transformation
  Using 1-stage real ELPA solver
  Solving real symmetric generalised eigenvalue problem by standard ScaLAPACK.
  Using Cholesky factor for transformation
  Using 1-stage real ELPA solver
  Determining occupation numbers for Kohn-Sham eigenstates.
  | Chemical potential (Fermi level) in eV                 : 0.11204232E+01
  | Error in electron count due to remaining E_F inaccuracy: 0.00000000E+00
  | Maximum occupation number of highest empty state:  0.00E+00

  Current spin moment of the entire structure :
  | N = N_up - N_down :    0.00
  | S                 :    0.00
  | J                 :    1.00

  Highest occupied state (VBM) at      0.62206248 eV
  | Occupation number:      1.00000000
  | Spin channel:        1
 * WARNING: The VBM is higher than the internal energy zero!

  Lowest unoccupied state (CBM) at     1.42812098 eV
  | Occupation number:      0.00000000
  | Spin channel:        2

  Overall HOMO-LUMO gap:      0.80605850 eV.

  Total energy components:
  | Sum of eigenvalues            :           0.04215615 Ha           1.14712724 eV
  | XC energy correction          :          -2.59589794 Ha         -70.63797701 eV
  | XC potential correction       :           3.35523412 Ha          91.30056566 eV
  | Free-atom electrostatic energy:           0.51757140 Ha          14.08383441 eV
  | Hartree energy correction     :          -4.43306358 Ha        -120.62979763 eV
  | van der Waals energy corr.    :           0.00000000 Ha           0.00000000 eV
  | Entropy correction            :           0.00000000 Ha           0.00000000 eV
  | ---------------------------
  | Total energy                  :          -3.11399985 Ha         -84.73624733 eV
  | Total energy, T -> 0          :          -3.11399985 Ha         -84.73624733 eV  <-- do not rely on this value for anything but (periodic) metals
  | Electronic free energy        :          -3.11399985 Ha         -84.73624733 eV

  Derived energy quantities:
  | Kinetic energy                :           3.20449603 Ha          87.19877370 eV
  | Electrostatic energy          :          -3.72259794 Ha        -101.29704402 eV
  | Energy correction for multipole
  | error in Hartree potential    :           0.00137633 Ha           0.03745175 eV
  | Sum of eigenvalues per atom                           :           0.57356362 eV
  | Total energy (T->0) per atom                          :         -42.36812366 eV  <-- do not rely on this value for anything but (periodic) metals
  | Electronic free energy per atom                       :         -42.36812366 eV

  Self-consistency convergence accuracy:
  | Change of charge/spin density : 0.2728E+01 0.6265E+00
  | Change of sum of eigenvalues  : -.2770E+01 eV
  | Change of total energy        : 0.7873E+02 eV

  End self-consistency iteration #     6       :  max(cpu_time)    wall_clock(cpu1)
  | Time for this iteration                    :        0.026 s           0.025 s
  | Charge density update                      :        0.006 s           0.006 s
  | Density mixing                             :        0.002 s           0.001 s
  | Hartree multipole update                   :        0.001 s           0.002 s
  | Hartree multipole summation                :        0.005 s           0.005 s
  | Integration                                :        0.009 s           0.009 s
  | Solution of K.-S. eqns.                    :        0.001 s           0.001 s
  | Total energy evaluation                    :        0.000 s           0.001 s
------------------------------------------------------------

------------------------------------------------------------
          Begin self-consistency iteration #    7

  Date     :  20220120, Time     :  152018.640
------------------------------------------------------------
  Evaluating new KS density.
  Integration grid: deviation in total charge (<rho> - N_e) =   1.038231E-08
  | <rho_up-rho_dn> = N_up-N_dn =      0.1223; <|rho_up-rho_dn|> =      0.9449
  Pulay mixing of updated and previous charge densities.

  Evaluating partitioned Hartree potential by multipole expansion.
  | Analytical far-field extrapolation by fixed multipoles:
  | Hartree multipole sum: apparent total charge =  -0.173543E-05
  Summing up the Hartree potential.
  Time summed over all CPUs for potential: real work        0.032 s, elapsed        0.033 s
  | RMS charge density error from multipole expansion :   0.169798E-01

  Integrating Hamiltonian matrix: batch-based integration.
  Time summed over all CPUs for integration: real work        0.064 s, elapsed        0.066 s

  Updating Kohn-Sham eigenvalues, eigenvectors, occupation numbers, and Fermi level.
  Solving generalized eigenproblem
  Solving real symmetric generalised eigenvalue problem by standard ScaLAPACK.
  Using Cholesky factor for transformation
  Using 1-stage real ELPA solver
  Solving real symmetric generalised eigenvalue problem by standard ScaLAPACK.
  Using Cholesky factor for transformation
  Using 1-stage real ELPA solver
  Determining occupation numbers for Kohn-Sham eigenstates.
  | Chemical potential (Fermi level) in eV                 : 0.10072334E+01
  | Error in electron count due to remaining E_F inaccuracy: 0.00000000E+00
  | Maximum occupation number of highest empty state:  0.00E+00

  Current spin moment of the entire structure :
  | N = N_up - N_down :    0.00
  | S                 :    0.00
  | J                 :    1.00

  Highest occupied state (VBM) at      0.19088857 eV
  | Occupation number:      1.00000000
  | Spin channel:        1
 * WARNING: The VBM is higher than the internal energy zero!

  Lowest unoccupied state (CBM) at     1.12478185 eV
  | Occupation number:      0.00000000
  | Spin channel:        2

  Overall HOMO-LUMO gap:      0.93389328 eV.

  Total energy components:
  | Sum of eigenvalues            :           0.00885291 Ha           0.24089981 eV
  | XC energy correction          :          -2.25276468 Ha         -61.30084592 eV
  | XC potential correction       :           2.90886711 Ha          79.15430149 eV
  | Free-atom electrostatic energy:           0.51757140 Ha          14.08383441 eV
  | Hartree energy correction     :          -3.50657177 Ha         -95.41867264 eV
  | van der Waals energy corr.    :           0.00000000 Ha           0.00000000 eV
  | Entropy correction            :           0.00000000 Ha           0.00000000 eV
  | ---------------------------
  | Total energy                  :          -2.32404503 Ha         -63.24048285 eV
  | Total energy, T -> 0          :          -2.32404503 Ha         -63.24048285 eV  <-- do not rely on this value for anything but (periodic) metals
  | Electronic free energy        :          -2.32404503 Ha         -63.24048285 eV

  Derived energy quantities:
  | Kinetic energy                :           3.58576490 Ha          97.57362734 eV
  | Electrostatic energy          :          -3.65704524 Ha         -99.51326428 eV
  | Energy correction for multipole
  | error in Hartree potential    :           0.00120830 Ha           0.03287963 eV
  | Sum of eigenvalues per atom                           :           0.12044990 eV
  | Total energy (T->0) per atom                          :         -31.62024143 eV  <-- do not rely on this value for anything but (periodic) metals
  | Electronic free energy per atom                       :         -31.62024143 eV

  Self-consistency convergence accuracy:
  | Change of charge/spin density : 0.2016E+01 0.4024E+00
  | Change of sum of eigenvalues  : -.9062E+00 eV
  | Change of total energy        : 0.2150E+02 eV

  End self-consistency iteration #     7       :  max(cpu_time)    wall_clock(cpu1)
  | Time for this iteration                    :        0.025 s           0.024 s
  | Charge density update                      :        0.006 s           0.005 s
  | Density mixing                             :        0.002 s           0.002 s
  | Hartree multipole update                   :        0.001 s           0.001 s
  | Hartree multipole summation                :        0.004 s           0.005 s
  | Integration                                :        0.008 s           0.008 s
  | Solution of K.-S. eqns.                    :        0.001 s           0.002 s
  | Total energy evaluation                    :        0.000 s           0.001 s
------------------------------------------------------------

------------------------------------------------------------
          Begin self-consistency iteration #    8

  Date     :  20220120, Time     :  152018.670
------------------------------------------------------------
  Evaluating new KS density.
  Integration grid: deviation in total charge (<rho> - N_e) =  -1.198484E-08
  | <rho_up-rho_dn> = N_up-N_dn =      0.2919; <|rho_up-rho_dn|> =      0.9211
  Pulay mixing of updated and previous charge densities.

  Evaluating partitioned Hartree potential by multipole expansion.
  | Analytical far-field extrapolation by fixed multipoles:
  | Hartree multipole sum: apparent total charge =  -0.122888E-04
  Summing up the Hartree potential.
  Time summed over all CPUs for potential: real work        0.034 s, elapsed        0.036 s
  | RMS charge density error from multipole expansion :   0.881780E-02

  Integrating Hamiltonian matrix: batch-based integration.
  Time summed over all CPUs for integration: real work        0.068 s, elapsed        0.071 s

  Updating Kohn-Sham eigenvalues, eigenvectors, occupation numbers, and Fermi level.
  Solving generalized eigenproblem
  Solving real symmetric generalised eigenvalue problem by standard ScaLAPACK.
  Using Cholesky factor for transformation
  Using 1-stage real ELPA solver
  Solving real symmetric generalised eigenvalue problem by standard ScaLAPACK.
  Using Cholesky factor for transformation
  Using 1-stage real ELPA solver
  Determining occupation numbers for Kohn-Sham eigenstates.
  | Chemical potential (Fermi level) in eV                 : -.44532855E+01
  | Error in electron count due to remaining E_F inaccuracy: 0.00000000E+00
  | Maximum occupation number of highest empty state:  0.00E+00

  Current spin moment of the entire structure :
  | N = N_up - N_down :    0.00
  | S                 :    0.00
  | J                 :    1.00

  Highest occupied state (VBM) at     -6.24697947 eV
  | Occupation number:      1.00000000
  | Spin channel:        2

  Lowest unoccupied state (CBM) at     0.44025191 eV
  | Occupation number:      0.00000000
  | Spin channel:        2

  Overall HOMO-LUMO gap:      6.68723137 eV.

  Total energy components:
  | Sum of eigenvalues            :          -0.47834581 Ha         -13.01645178 eV
  | XC energy correction          :          -1.25029061 Ha         -34.02213856 eV
  | XC potential correction       :           1.60703433 Ha          43.72962916 eV
  | Free-atom electrostatic energy:           0.51757140 Ha          14.08383441 eV
  | Hartree energy correction     :          -1.18906037 Ha         -32.35597883 eV
  | van der Waals energy corr.    :           0.00000000 Ha           0.00000000 eV
  | Entropy correction            :           0.00000000 Ha           0.00000000 eV
  | ---------------------------
  | Total energy                  :          -0.79309105 Ha         -21.58110560 eV
  | Total energy, T -> 0          :          -0.79309105 Ha         -21.58110560 eV  <-- do not rely on this value for anything but (periodic) metals
  | Electronic free energy        :          -0.79309105 Ha         -21.58110560 eV

  Derived energy quantities:
  | Kinetic energy                :           3.23039079 Ha          87.90340582 eV
  | Electrostatic energy          :          -2.77319123 Ha         -75.46237287 eV
  | Energy correction for multipole
  | error in Hartree potential    :           0.00063705 Ha           0.01733489 eV
  | Sum of eigenvalues per atom                           :          -6.50822589 eV
  | Total energy (T->0) per atom                          :         -10.79055280 eV  <-- do not rely on this value for anything but (periodic) metals
  | Electronic free energy per atom                       :         -10.79055280 eV

  Self-consistency convergence accuracy:
  | Change of charge/spin density : 0.1781E+01 0.3306E+00
  | Change of sum of eigenvalues  : -.1326E+02 eV
  | Change of total energy        : 0.4166E+02 eV

  End self-consistency iteration #     8       :  max(cpu_time)    wall_clock(cpu1)
  | Time for this iteration                    :        0.027 s           0.026 s
  | Charge density update                      :        0.006 s           0.006 s
  | Density mixing                             :        0.002 s           0.002 s
  | Hartree multipole update                   :        0.001 s           0.001 s
  | Hartree multipole summation                :        0.005 s           0.005 s
  | Integration                                :        0.009 s           0.009 s
  | Solution of K.-S. eqns.                    :        0.001 s           0.002 s
  | Total energy evaluation                    :        0.000 s           0.001 s
------------------------------------------------------------

------------------------------------------------------------
          Begin self-consistency iteration #    9

  Date     :  20220120, Time     :  152018.700
------------------------------------------------------------
  Evaluating new KS density.
  Integration grid: deviation in total charge (<rho> - N_e) =   3.282297E-08
  | <rho_up-rho_dn> = N_up-N_dn =      0.0708; <|rho_up-rho_dn|> =      0.3975
  Pulay mixing of updated and previous charge densities.

  Evaluating partitioned Hartree potential by multipole expansion.
  | Analytical far-field extrapolation by fixed multipoles:
  | Hartree multipole sum: apparent total charge =  -0.169422E-04
  Summing up the Hartree potential.
  Time summed over all CPUs for potential: real work        0.033 s, elapsed        0.036 s
  | RMS charge density error from multipole expansion :   0.592174E-02

  Integrating Hamiltonian matrix: batch-based integration.
  Time summed over all CPUs for integration: real work        0.072 s, elapsed        0.076 s

  Updating Kohn-Sham eigenvalues, eigenvectors, occupation numbers, and Fermi level.
  Solving generalized eigenproblem
  Solving real symmetric generalised eigenvalue problem by standard ScaLAPACK.
  Using Cholesky factor for transformation
  Using 1-stage real ELPA solver
  Solving real symmetric generalised eigenvalue problem by standard ScaLAPACK.
  Using Cholesky factor for transformation
  Using 1-stage real ELPA solver
  Determining occupation numbers for Kohn-Sham eigenstates.
  | Chemical potential (Fermi level) in eV                 : -.96539591E+01
  | Error in electron count due to remaining E_F inaccuracy: 0.00000000E+00
  | Maximum occupation number of highest empty state:  0.00E+00

  Current spin moment of the entire structure :
  | N = N_up - N_down :    0.00
  | S                 :    0.00
  | J                 :    1.00

  Highest occupied state (VBM) at    -11.99375502 eV
  | Occupation number:      1.00000000
  | Spin channel:        2

  Lowest unoccupied state (CBM) at     0.05386734 eV
  | Occupation number:      0.00000000
  | Spin channel:        1

  Overall HOMO-LUMO gap:     12.04762236 eV.

  Total energy components:
  | Sum of eigenvalues            :          -0.88699678 Ha         -24.13641030 eV
  | XC energy correction          :          -0.97850142 Ha         -26.62637839 eV
  | XC potential correction       :           1.25475019 Ha          34.14348988 eV
  | Free-atom electrostatic energy:           0.51757140 Ha          14.08383441 eV
  | Hartree energy correction     :          -0.67769675 Ha         -18.44106689 eV
  | van der Waals energy corr.    :           0.00000000 Ha           0.00000000 eV
  | Entropy correction            :           0.00000000 Ha           0.00000000 eV
  | ---------------------------
  | Total energy                  :          -0.77087336 Ha         -20.97653131 eV
  | Total energy, T -> 0          :          -0.77087336 Ha         -20.97653131 eV  <-- do not rely on this value for anything but (periodic) metals
  | Electronic free energy        :          -0.77087336 Ha         -20.97653131 eV

  Derived energy quantities:
  | Kinetic energy                :           2.41676449 Ha          65.76350782 eV
  | Electrostatic energy          :          -2.20913643 Ha         -60.11366074 eV
  | Energy correction for multipole
  | error in Hartree potential    :           0.00045486 Ha           0.01237747 eV
  | Sum of eigenvalues per atom                           :         -12.06820515 eV
  | Total energy (T->0) per atom                          :         -10.48826565 eV  <-- do not rely on this value for anything but (periodic) metals
  | Electronic free energy per atom                       :         -10.48826565 eV

  Self-consistency convergence accuracy:
  | Change of charge/spin density : 0.6065E+00 0.1717E+00
  | Change of sum of eigenvalues  : -.1112E+02 eV
  | Change of total energy        : 0.6046E+00 eV

  End self-consistency iteration #     9       :  max(cpu_time)    wall_clock(cpu1)
  | Time for this iteration                    :        0.027 s           0.026 s
  | Charge density update                      :        0.006 s           0.006 s
  | Density mixing                             :        0.002 s           0.002 s
  | Hartree multipole update                   :        0.001 s           0.001 s
  | Hartree multipole summation                :        0.005 s           0.005 s
  | Integration                                :        0.010 s           0.010 s
  | Solution of K.-S. eqns.                    :        0.001 s           0.001 s
  | Total energy evaluation                    :        0.000 s           0.000 s
------------------------------------------------------------

------------------------------------------------------------
          Begin self-consistency iteration #   10

  Date     :  20220120, Time     :  152018.730
------------------------------------------------------------
  Evaluating new KS density.
  Integration grid: deviation in total charge (<rho> - N_e) =   5.133779E-08
  | <rho_up-rho_dn> = N_up-N_dn =     -0.0358; <|rho_up-rho_dn|> =      0.1615
  Pulay mixing of updated and previous charge densities.

  Evaluating partitioned Hartree potential by multipole expansion.
  | Analytical far-field extrapolation by fixed multipoles:
  | Hartree multipole sum: apparent total charge =  -0.203112E-04
  Summing up the Hartree potential.
  Time summed over all CPUs for potential: real work        0.038 s, elapsed        0.042 s
  | RMS charge density error from multipole expansion :   0.551684E-02

  Integrating Hamiltonian matrix: batch-based integration.
  Time summed over all CPUs for integration: real work        0.076 s, elapsed        0.079 s

  Updating Kohn-Sham eigenvalues, eigenvectors, occupation numbers, and Fermi level.
  Solving generalized eigenproblem
  Solving real symmetric generalised eigenvalue problem by standard ScaLAPACK.
  Using Cholesky factor for transformation
  Using 1-stage real ELPA solver
  Solving real symmetric generalised eigenvalue problem by standard ScaLAPACK.
  Using Cholesky factor for transformation
  Using 1-stage real ELPA solver
  Determining occupation numbers for Kohn-Sham eigenstates.
  | Chemical potential (Fermi level) in eV                 : -.10304566E+02
  | Error in electron count due to remaining E_F inaccuracy: 0.00000000E+00
  | Maximum occupation number of highest empty state:  0.00E+00

  Current spin moment of the entire structure :
  | N = N_up - N_down :    0.00
  | S                 :    0.00
  | J                 :    1.00

  Highest occupied state (VBM) at    -12.67277251 eV
  | Occupation number:      1.00000000
  | Spin channel:        2

  Lowest unoccupied state (CBM) at     0.01469856 eV
  | Occupation number:      0.00000000
  | Spin channel:        1

  Overall HOMO-LUMO gap:     12.68747108 eV.

  Total energy components:
  | Sum of eigenvalues            :          -0.93636787 Ha         -25.47986620 eV
  | XC energy correction          :          -0.94371693 Ha         -25.67984431 eV
  | XC potential correction       :           1.20981406 Ha          32.92071555 eV
  | Free-atom electrostatic energy:           0.51757140 Ha          14.08383441 eV
  | Hartree energy correction     :          -0.61208132 Ha         -16.65558022 eV
  | van der Waals energy corr.    :           0.00000000 Ha           0.00000000 eV
  | Entropy correction            :           0.00000000 Ha           0.00000000 eV
  | ---------------------------
  | Total energy                  :          -0.76478067 Ha         -20.81074078 eV
  | Total energy, T -> 0          :          -0.76478067 Ha         -20.81074078 eV  <-- do not rely on this value for anything but (periodic) metals
  | Electronic free energy        :          -0.76478067 Ha         -20.81074078 eV

  Derived energy quantities:
  | Kinetic energy                :           2.29334585 Ha          62.40511562 eV
  | Electrostatic energy          :          -2.11440958 Ha         -57.53601209 eV
  | Energy correction for multipole
  | error in Hartree potential    :           0.00043298 Ha           0.01178196 eV
  | Sum of eigenvalues per atom                           :         -12.73993310 eV
  | Total energy (T->0) per atom                          :         -10.40537039 eV  <-- do not rely on this value for anything but (periodic) metals
  | Electronic free energy per atom                       :         -10.40537039 eV

  Self-consistency convergence accuracy:
  | Change of charge/spin density : 0.2572E+00 0.9068E-01
  | Change of sum of eigenvalues  : -.1343E+01 eV
  | Change of total energy        : 0.1658E+00 eV

  End self-consistency iteration #    10       :  max(cpu_time)    wall_clock(cpu1)
  | Time for this iteration                    :        0.030 s           0.029 s
  | Charge density update                      :        0.006 s           0.006 s
  | Density mixing                             :        0.002 s           0.002 s
  | Hartree multipole update                   :        0.001 s           0.002 s
  | Hartree multipole summation                :        0.006 s           0.005 s
  | Integration                                :        0.010 s           0.011 s
  | Solution of K.-S. eqns.                    :        0.002 s           0.002 s
  | Total energy evaluation                    :        0.000 s           0.000 s
------------------------------------------------------------

------------------------------------------------------------
          Begin self-consistency iteration #   11

  Date     :  20220120, Time     :  152018.761
------------------------------------------------------------
  Evaluating new KS density.
  Integration grid: deviation in total charge (<rho> - N_e) =   3.888117E-08
  | <rho_up-rho_dn> = N_up-N_dn =     -0.0019; <|rho_up-rho_dn|> =      0.1435
  Pulay mixing of updated and previous charge densities.

  Evaluating partitioned Hartree potential by multipole expansion.
  | Analytical far-field extrapolation by fixed multipoles:
  | Hartree multipole sum: apparent total charge =  -0.228860E-04
  Summing up the Hartree potential.
  Time summed over all CPUs for potential: real work        0.034 s, elapsed        0.037 s
  | RMS charge density error from multipole expansion :   0.506955E-02

  Integrating Hamiltonian matrix: batch-based integration.
  Time summed over all CPUs for integration: real work        0.076 s, elapsed        0.080 s

  Updating Kohn-Sham eigenvalues, eigenvectors, occupation numbers, and Fermi level.
  Solving generalized eigenproblem
  Solving real symmetric generalised eigenvalue problem by standard ScaLAPACK.
  Using Cholesky factor for transformation
  Using 1-stage real ELPA solver
  Solving real symmetric generalised eigenvalue problem by standard ScaLAPACK.
  Using Cholesky factor for transformation
  Using 1-stage real ELPA solver
  Determining occupation numbers for Kohn-Sham eigenstates.
  | Chemical potential (Fermi level) in eV                 : -.11106365E+02
  | Error in electron count due to remaining E_F inaccuracy: 0.00000000E+00
  | Maximum occupation number of highest empty state:  0.00E+00

  Current spin moment of the entire structure :
  | N = N_up - N_down :    0.00
  | S                 :    0.00
  | J                 :    1.00

  Highest occupied state (VBM) at    -13.40121937 eV
  | Occupation number:      1.00000000
  | Spin channel:        2

  Lowest unoccupied state (CBM) at     0.00645388 eV
  | Occupation number:      0.00000000
  | Spin channel:        2

  Overall HOMO-LUMO gap:     13.40767325 eV.

  Total energy components:
  | Sum of eigenvalues            :          -0.99382856 Ha         -27.04345114 eV
  | XC energy correction          :          -0.90739927 Ha         -24.69159042 eV
  | XC potential correction       :           1.16284853 Ha          31.64271850 eV
  | Free-atom electrostatic energy:           0.51757140 Ha          14.08383441 eV
  | Hartree energy correction     :          -0.54434145 Ha         -14.81228458 eV
  | van der Waals energy corr.    :           0.00000000 Ha           0.00000000 eV
  | Entropy correction            :           0.00000000 Ha           0.00000000 eV
  | ---------------------------
  | Total energy                  :          -0.76514935 Ha         -20.82077322 eV
  | Total energy, T -> 0          :          -0.76514935 Ha         -20.82077322 eV  <-- do not rely on this value for anything but (periodic) metals
  | Electronic free energy        :          -0.76514935 Ha         -20.82077322 eV

  Derived energy quantities:
  | Kinetic energy                :           2.15157484 Ha          58.54733014 eV
  | Electrostatic energy          :          -2.00932492 Ha         -54.67651294 eV
  | Energy correction for multipole
  | error in Hartree potential    :           0.00040675 Ha           0.01106826 eV
  | Sum of eigenvalues per atom                           :         -13.52172557 eV
[...]
  | Change of sum of eigenvalues  : 0.9337E-04 eV
  | Change of total energy        : -.4438E-07 eV

  End self-consistency iteration #    27       :  max(cpu_time)    wall_clock(cpu1)
  | Time for this iteration                    :        0.027 s           0.026 s
  | Charge density update                      :        0.006 s           0.005 s
  | Density mixing                             :        0.002 s           0.002 s
  | Hartree multipole update                   :        0.001 s           0.002 s
  | Hartree multipole summation                :        0.005 s           0.004 s
  | Integration                                :        0.009 s           0.009 s
  | Solution of K.-S. eqns.                    :        0.001 s           0.001 s
  | Total energy evaluation                    :        0.000 s           0.000 s
------------------------------------------------------------

------------------------------------------------------------
          Begin self-consistency iteration #   28

  Date     :  20220120, Time     :  152019.271
------------------------------------------------------------
  Evaluating new KS density.
  Integration grid: deviation in total charge (<rho> - N_e) =  -3.880007E-12
  | <rho_up-rho_dn> = N_up-N_dn =      0.0000; <|rho_up-rho_dn|> =      0.0000
  Pulay mixing of updated and previous charge densities.

  Evaluating partitioned Hartree potential by multipole expansion.
  | Analytical far-field extrapolation by fixed multipoles:
  | Hartree multipole sum: apparent total charge =   0.311545E-05
  Summing up the Hartree potential.
  Time summed over all CPUs for potential: real work        0.035 s, elapsed        0.043 s
  | RMS charge density error from multipole expansion :   0.404789E-02

  Integrating Hamiltonian matrix: batch-based integration.
  Time summed over all CPUs for integration: real work        0.075 s, elapsed        0.077 s

  Updating Kohn-Sham eigenvalues, eigenvectors, occupation numbers, and Fermi level.
  Solving generalized eigenproblem
  Solving real symmetric generalised eigenvalue problem by standard ScaLAPACK.
  Using Cholesky factor for transformation
  Using 1-stage real ELPA solver
  Solving real symmetric generalised eigenvalue problem by standard ScaLAPACK.
  Using Cholesky factor for transformation
  Using 1-stage real ELPA solver
  Determining occupation numbers for Kohn-Sham eigenstates.
  | Chemical potential (Fermi level) in eV                 : -.11398825E+02
  | Error in electron count due to remaining E_F inaccuracy: 0.00000000E+00
  | Maximum occupation number of highest empty state:  0.00E+00

  Current spin moment of the entire structure :
  | N = N_up - N_down :    0.00
  | S                 :    0.00
  | J                 :    1.00

  Highest occupied state (VBM) at    -13.18423417 eV
  | Occupation number:      1.00000000
  | Spin channel:        1

  Lowest unoccupied state (CBM) at     1.22747759 eV
  | Occupation number:      0.00000000
  | Spin channel:        2

  Overall HOMO-LUMO gap:     14.41171176 eV.

  Total energy components:
  | Sum of eigenvalues            :          -0.96902342 Ha         -26.36846890 eV
  | XC energy correction          :          -0.87603777 Ha         -23.83820064 eV
  | XC potential correction       :           1.12356335 Ha          30.57371440 eV
  | Free-atom electrostatic energy:           0.51757140 Ha          14.08383441 eV
  | Hartree energy correction     :          -0.56065134 Ha         -15.25609919 eV
  | van der Waals energy corr.    :           0.00000000 Ha           0.00000000 eV
  | Entropy correction            :           0.00000000 Ha           0.00000000 eV
  | ---------------------------
  | Total energy                  :          -0.76457778 Ha         -20.80521992 eV
  | Total energy, T -> 0          :          -0.76457778 Ha         -20.80521992 eV  <-- do not rely on this value for anything but (periodic) metals
  | Electronic free energy        :          -0.76457778 Ha         -20.80521992 eV

  Derived energy quantities:
  | Kinetic energy                :           1.84152829 Ha          50.11053436 eV
  | Electrostatic energy          :          -1.73006830 Ha         -47.07755364 eV
  | Energy correction for multipole
  | error in Hartree potential    :           0.00038127 Ha           0.01037475 eV
  | Sum of eigenvalues per atom                           :         -13.18423445 eV
  | Total energy (T->0) per atom                          :         -10.40260996 eV  <-- do not rely on this value for anything but (periodic) metals
  | Electronic free energy per atom                       :         -10.40260996 eV

  Self-consistency convergence accuracy:
  | Change of charge/spin density : 0.1111E-05 0.3689E-06
  | Change of sum of eigenvalues  : 0.7690E-04 eV
  | Change of total energy        : -.1969E-07 eV

  End self-consistency iteration #    28       :  max(cpu_time)    wall_clock(cpu1)
  | Time for this iteration                    :        0.030 s           0.030 s
  | Charge density update                      :        0.006 s           0.006 s
  | Density mixing                             :        0.002 s           0.002 s
  | Hartree multipole update                   :        0.001 s           0.002 s
  | Hartree multipole summation                :        0.006 s           0.006 s
  | Integration                                :        0.010 s           0.010 s
  | Solution of K.-S. eqns.                    :        0.003 s           0.003 s
  | Total energy evaluation                    :        0.000 s           0.001 s
------------------------------------------------------------

------------------------------------------------------------
          Begin self-consistency iteration #   29

  Date     :  20220120, Time     :  152019.303
------------------------------------------------------------
  Evaluating new KS density.
  Integration grid: deviation in total charge (<rho> - N_e) =  -1.409539E-12
  | <rho_up-rho_dn> = N_up-N_dn =      0.0000; <|rho_up-rho_dn|> =      0.0000
  Pulay mixing of updated and previous charge densities.

  Evaluating partitioned Hartree potential by multipole expansion.
  | Analytical far-field extrapolation by fixed multipoles:
  | Hartree multipole sum: apparent total charge =   0.311545E-05
  Summing up the Hartree potential.
  Time summed over all CPUs for potential: real work        0.034 s, elapsed        0.035 s
  | RMS charge density error from multipole expansion :   0.404789E-02

  Integrating Hamiltonian matrix: batch-based integration.
  Time summed over all CPUs for integration: real work        0.077 s, elapsed        0.086 s

  Updating Kohn-Sham eigenvalues, eigenvectors, occupation numbers, and Fermi level.
  Solving generalized eigenproblem
  Solving real symmetric generalised eigenvalue problem by standard ScaLAPACK.
  Using Cholesky factor for transformation
  Using 1-stage real ELPA solver
  Solving real symmetric generalised eigenvalue problem by standard ScaLAPACK.
  Using Cholesky factor for transformation
  Using 1-stage real ELPA solver
  Determining occupation numbers for Kohn-Sham eigenstates.
  | Chemical potential (Fermi level) in eV                 : -.11399287E+02
  | Error in electron count due to remaining E_F inaccuracy: 0.00000000E+00
  | Maximum occupation number of highest empty state:  0.00E+00

  Current spin moment of the entire structure :
  | N = N_up - N_down :    0.00
  | S                 :    0.00
  | J                 :    1.00

  Highest occupied state (VBM) at    -13.18423166 eV
  | Occupation number:      1.00000000
  | Spin channel:        2

  Lowest unoccupied state (CBM) at     1.22758427 eV
  | Occupation number:      0.00000000
  | Spin channel:        2

  Overall HOMO-LUMO gap:     14.41181593 eV.

  Total energy components:
  | Sum of eigenvalues            :          -0.96902322 Ha         -26.36846338 eV
  | XC energy correction          :          -0.87603784 Ha         -23.83820254 eV
  | XC potential correction       :           1.12356344 Ha          30.57371675 eV
  | Free-atom electrostatic energy:           0.51757140 Ha          14.08383441 eV
  | Hartree energy correction     :          -0.56065156 Ha         -15.25610516 eV
  | van der Waals energy corr.    :           0.00000000 Ha           0.00000000 eV
  | Entropy correction            :           0.00000000 Ha           0.00000000 eV
  | ---------------------------
  | Total energy                  :          -0.76457778 Ha         -20.80521992 eV
  | Total energy, T -> 0          :          -0.76457778 Ha         -20.80521992 eV  <-- do not rely on this value for anything but (periodic) metals
  | Electronic free energy        :          -0.76457778 Ha         -20.80521992 eV

  Derived energy quantities:
  | Kinetic energy                :           1.84152843 Ha          50.11053813 eV
  | Electrostatic energy          :          -1.73006837 Ha         -47.07755551 eV
  | Energy correction for multipole
  | error in Hartree potential    :           0.00038127 Ha           0.01037475 eV
  | Sum of eigenvalues per atom                           :         -13.18423169 eV
  | Total energy (T->0) per atom                          :         -10.40260996 eV  <-- do not rely on this value for anything but (periodic) metals
  | Electronic free energy per atom                       :         -10.40260996 eV

  Self-consistency convergence accuracy:
  | Change of charge/spin density : 0.1560E-06 0.1505E-06
  | Change of sum of eigenvalues  : 0.5521E-05 eV
  | Change of total energy        : -.1212E-09 eV

  Writing Kohn-Sham eigenvalues.

  Spin-up eigenvalues:

  State    Occupation    Eigenvalue [Ha]    Eigenvalue [eV]
      1       1.00000          -0.484512          -13.18423
      2       0.00000           0.045117            1.22770
      3       0.00000           0.055952            1.52252
      4       0.00000           0.234889            6.39166
      5       0.00000           0.340832            9.27451
      6       0.00000           0.367488            9.99987
      7       0.00000           0.367488            9.99987
      8       0.00000           0.733502           19.95961
      9       0.00000           0.733502           19.95961
     10       0.00000           0.797334           21.69656
     11       0.00000           0.827390           22.51443

  Spin-down eigenvalues:

  State    Occupation    Eigenvalue [Ha]    Eigenvalue [eV]
      1       1.00000          -0.484512          -13.18423
      2       0.00000           0.045113            1.22758
      3       0.00000           0.055949            1.52246
      4       0.00000           0.234888            6.39162
      5       0.00000           0.340828            9.27440
      6       0.00000           0.367488            9.99987
      7       0.00000           0.367488            9.99987
      8       0.00000           0.733502           19.95961
      9       0.00000           0.733502           19.95961
     10       0.00000           0.797334           21.69655
     11       0.00000           0.827390           22.51443

  Current spin moment of the entire structure :
  | N = N_up - N_down :    0.00
  | S                 :    0.00
  | J                 :    1.00

  Highest occupied state (VBM) at    -13.18423166 eV
  | Occupation number:      1.00000000
  | Spin channel:        2

  Lowest unoccupied state (CBM) at     1.22758427 eV
  | Occupation number:      0.00000000
  | Spin channel:        2

  Overall HOMO-LUMO gap:     14.41181593 eV.

  Self-consistency cycle converged.

  End self-consistency iteration #    29       :  max(cpu_time)    wall_clock(cpu1)
  | Time for this iteration                    :        0.031 s           0.031 s
  | Charge density update                      :        0.008 s           0.007 s
  | Density mixing                             :        0.002 s           0.002 s
  | Hartree multipole update                   :        0.001 s           0.001 s
  | Hartree multipole summation                :        0.005 s           0.005 s
  | Integration                                :        0.011 s           0.011 s
  | Solution of K.-S. eqns.                    :        0.002 s           0.002 s
  | Total energy evaluation                    :        0.000 s           0.000 s
------------------------------------------------------------
  Obtaining max. number of non-zero basis functions in each batch .
  Evaluating KS electron density on previously omitted grid points.
  Evaluating non-empirical van der Waals correction (Tkatchenko/Scheffler 2009).
  Performing Hirshfeld analysis of fragment charges and moments.
  ----------------------------------------------------------------------
  | Atom     1: H
  |   Hirshfeld charge        :     -0.00000147
  |   Free atom volume        :     10.31539447
  |   Hirshfeld volume        :      3.27236516
  |   Hirshfeld spin moment   :     -0.00000006
  |   Hirshfeld dipole vector :     -0.00000000       0.00000000      -0.04869494
  |   Hirshfeld dipole moment :      0.04869494
  |   Hirshfeld second moments:      0.18671437       0.00000000      -0.00000000
  |                                  0.00000000       0.18671437      -0.00000000
  |                                 -0.00000000      -0.00000000       0.17947243
  ----------------------------------------------------------------------
  | Atom     2: H
  |   Hirshfeld charge        :     -0.00000147
  |   Free atom volume        :     10.31539447
  |   Hirshfeld volume        :      3.27236516
  |   Hirshfeld spin moment   :     -0.00000006
  |   Hirshfeld dipole vector :     -0.00000000      -0.00000000       0.04869494
  |   Hirshfeld dipole moment :      0.04869494
  |   Hirshfeld second moments:      0.18671437       0.00000000      -0.00000000
  |                                  0.00000000       0.18671437      -0.00000000
  |                                 -0.00000000      -0.00000000       0.17947243
  ----------------------------------------------------------------------


  Total energy components:
  | Sum of eigenvalues            :          -0.96902322 Ha         -26.36846338 eV
  | XC energy correction          :          -0.87603784 Ha         -23.83820254 eV
  | XC potential correction       :           1.12356344 Ha          30.57371675 eV
  | Free-atom electrostatic energy:           0.51757140 Ha          14.08383441 eV
  | Hartree energy correction     :          -0.56065156 Ha         -15.25610516 eV
  | van der Waals energy corr.    :          -0.00000058 Ha          -0.00001573 eV
  | Entropy correction            :           0.00000000 Ha           0.00000000 eV
  | ---------------------------
  | Total energy                  :          -0.76457836 Ha         -20.80523565 eV
  | Total energy, T -> 0          :          -0.76457836 Ha         -20.80523565 eV  <-- do not rely on this value for anything but (periodic) metals
  | Electronic free energy        :          -0.76457836 Ha         -20.80523565 eV

  Derived energy quantities:
  | Kinetic energy                :           1.84152843 Ha          50.11053813 eV
  | Electrostatic energy          :          -1.73006837 Ha         -47.07755551 eV
  | Energy correction for multipole
  | error in Hartree potential    :           0.00038127 Ha           0.01037475 eV
  | Sum of eigenvalues per atom                           :         -13.18423169 eV
  | Total energy (T->0) per atom                          :         -10.40261782 eV  <-- do not rely on this value for anything but (periodic) metals
  | Electronic free energy per atom                       :         -10.40261782 eV
  Timings for VdW correction (Tkatchenko-Scheffler 2009 or later):
  | CPU time:        0.003 s, Wall clock time:        0.003 s.

  Energy and forces in a compact form:
  | Total energy uncorrected      :         -0.208052356498026E+02 eV
  | Total energy corrected        :         -0.208052356498026E+02 eV  <-- do not rely on this value for anything but (periodic) metals
  | Electronic free energy        :         -0.208052356498026E+02 eV

  ------------------------------------ 
  Start decomposition of the XC Energy 
  ------------------------------------ 
  Hartree-Fock part   :          0.000000000 Ha              0.000000000 eV
  ------------------------------------ 
  X Energy            :         -0.832272220 Ha            -22.647279396 eV
  C Energy GGA        :         -0.043765621 Ha             -1.190923149 eV
  Total XC Energy     :         -0.876037842 Ha            -23.838202544 eV
  LDA X and C from self-consistent density 
  X Energy LDA        :         -0.728546469 Ha            -19.824758087 eV
  C Energy LDA        :         -0.104382494 Ha             -2.840392170 eV
  ------------------------------------ 
  End decomposition of the XC Energy 
  ------------------------------------ 

------------------------------------------------------------------------------
  Final output of selected total energy values:

  The following output summarizes some interesting total energy values
  at the end of a run (AFTER all relaxation, molecular dynamics, etc.).

  | Total energy of the DFT / Hartree-Fock s.c.f. calculation      :            -20.805235650 eV
  | Final zero-broadening corrected energy (caution - metals only) :            -20.805235650 eV
  | For reference only, the value of 1 Hartree used in FHI-aims is :             27.211384500 eV

  Before relying on these values, please be sure to understand exactly which
  total energy value is referred to by a given number. Different objects may
  all carry the same name 'total energy'. Definitions:

  Total energy of the DFT / Hartree-Fock s.c.f. calculation:
  | Note that this energy does not include ANY quantities calculated after the
  | s.c.f. cycle, in particular not ANY RPA, MP2, etc. many-body perturbation terms.

  Final zero-broadening corrected energy:
  | For metallic systems only, a broadening of the occupation numbers at the Fermi
  | level can be extrapolated back to zero broadening by an electron-gas inspired
  | formula. For all systems that are not real metals, this value can be
  | meaningless and should be avoided.

------------------------------------------------------------------------------

------------------------------------------------------------
          Leaving FHI-aims.
          Date     :  20220120, Time     :  152019.347

          Computational steps:
          | Number of self-consistency cycles          :           29

          Detailed time accounting                     :  max(cpu_time)    wall_clock(cpu1)
          | Total time                                 :        0.998 s           1.103 s
          | Preparation time                           :        0.086 s           0.085 s
          | Grid partitioning                          :        0.008 s           0.008 s
          | Preloading free-atom quantities on grid    :        0.004 s           0.004 s
          | Free-atom superposition energy             :        0.002 s           0.003 s
          | Total time for integrations                :        0.290 s           0.294 s
          | Total time for solution of K.-S. equations :        0.053 s           0.054 s
          | Total time for density update              :        0.198 s           0.178 s
          | Total time for mixing                      :        0.052 s           0.051 s
          | Total time for Hartree multipole update    :        0.040 s           0.040 s
          | Total time for Hartree multipole sum       :        0.140 s           0.142 s
          | Total time for total energy evaluation     :        0.005 s           0.013 s
          | Total time for scaled ZORA corrections     :        0.000 s           0.000 s
          | Total time for vdW correction              :        0.003 s           0.003 s

          Have a nice day.
------------------------------------------------------------
