  MPI-parallelism will be employed.
------------------------------------------------------------
          Invoking FHI-aims ...
          Version 052014
          Git rev. (modified): 096c982 Merge branch master of fhiaims:/pub/localo[...]
          Compiled on 2016/12/16 at 15:22:01 on host login02.hpc.iitd.ac.in.

          When using FHI-aims, please cite the following reference:

          Volker Blum, Ralf Gehrke, Felix Hanke, Paula Havu,
          Ville Havu, Xinguo Ren, Karsten Reuter, and Matthias Scheffler,
          'Ab Initio Molecular Simulations with Numeric Atom-Centered Orbitals: FHI-aims',
          Computer Physics Communications 180, 2175-2196 (2009)

          For any questions about FHI-aims, please visit the aimsclub website
          with its forums and wiki. Contributions to both the forums and the
          wiki are warmly encouraged - they are for you, and everyone is welcome there.

------------------------------------------------------------

  Date     :  20220120, Time     :  151810.735
  Time zero on CPU 1             :   0.228090000000000E-01  s.
  Internal wall clock time zero  :           411923890.735  s.

  Using        8 parallel tasks.
  Task        0 on host csky019 reporting.
  Task        1 on host csky019 reporting.
  Task        2 on host csky019 reporting.
  Task        3 on host csky019 reporting.
  Task        4 on host csky019 reporting.
  Task        5 on host csky019 reporting.
  Task        6 on host csky019 reporting.
  Task        7 on host csky019 reporting.

  Performing system and environment tests:
  | Environment variable OMP_NUM_THREADS correctly set to 1.
  | Stacksize not measured: no C compiler
  | Checking for scalapack...
  | Testing pdtran()...
  | All pdtran() tests passed.

  Obtaining array dimensions for all initial allocations:
  
  -----------------------------------------------------------------------
  Parsing control.in (first pass over file, find array dimensions only).
  The contents of control.in will be repeated verbatim below
  unless switched off by setting 'verbatim_writeout .false.' .
  in the first line of control.in .
  -----------------------------------------------------------------------
  
    xc               pbe
    spin             collinear
    default_initial_moment hund
    relativistic     atomic_zora scalar 1e-9
    occupation_type  gaussian 0.001
    charge        0
    vdw_correction_hirshfeld
    KS_method        scalapack_fast
    mixer            pulay
    charge_mix_param  0.4
    spin_mix_param    0.6
    sc_accuracy_rho  1E-4
    sc_accuracy_eev  1E-5
    sc_accuracy_etot 1E-5
    sc_iter_limit    100
    empty_states     10
  ################################################################################
  #
  #  FHI-aims code project
  # Volker Blum, Fritz Haber Institute Berlin, 2009
  #
  #  Suggested "tight" defaults for H atom (to be pasted into control.in file)
  #
  ################################################################################
    species        H
  #     global species definitions
      nucleus             1
      mass                1.00794
  #
      l_hartree           6
  #
      cut_pot             4.0  2.0  1.0
      basis_dep_cutoff    1e-4
  #
      radial_base         24 7.0
      radial_multiplier   2
      angular_grids       specified
        division   0.1930   50
        division   0.3175  110
        division   0.4293  194
        division   0.5066  302
        division   0.5626  434
  #      division   0.5922  590
  #      division   0.6227  974
  #      division   0.6868 1202
  #      outer_grid  770
        outer_grid  434
  ################################################################################
  #
  #  Definition of "minimal" basis
  #
  ################################################################################
  #     valence basis states
      valence      1  s   1.
  #     ion occupancy
      ion_occ      1  s   0.5
  ################################################################################
  #
  #  Suggested additional basis functions. For production calculations,
  #  uncomment them one after another (the most important basis functions are
  #  listed first).
  #
  #  Basis constructed for dimers: 0.5 A, 0.7 A, 1.0 A, 1.5 A, 2.5 A
  #
  ################################################################################
  #  "First tier" - improvements: -1014.90 meV to -62.69 meV
       hydro 2 s 2.1
       hydro 2 p 3.5
  #  "Second tier" - improvements: -12.89 meV to -1.83 meV
       hydro 1 s 0.85
       hydro 2 p 3.7
       hydro 2 s 1.2
       hydro 3 d 7
  #  "Third tier" - improvements: -0.25 meV to -0.12 meV
  #     hydro 4 f 11.2
  #     hydro 3 p 4.8
  #     hydro 4 d 9
  #     hydro 3 s 3.2
  ################################################################################
  #
  # For methods that use the localized form of the "resolution of identity" for
  # the two-electron Coulomb operator (RI_method LVL), particularly Hartree-Fock and
  # hybrid density functional calculations, the highest accuracy can be obtained by
  # uncommenting the line beginning with "for_aux"  below, thus adding an extra g radial
  # function to the construction of the product basis set for the expansion.
  # See Ref. New J. Phys. 17, 093020 (2015) for more information, particularly Figs. 1 and 6.
  #
  ################################################################################
  #
  # for_aux hydro 5 g 6.0
  
  -----------------------------------------------------------------------
  Completed first pass over input file control.in .
  -----------------------------------------------------------------------
  
  
  -----------------------------------------------------------------------
  Parsing geometry.in (first pass over file, find array dimensions only).
  The contents of geometry.in will be repeated verbatim below
  unless switched off by setting 'verbatim_writeout .false.' .
  in the first line of geometry.in .
  -----------------------------------------------------------------------
  
  atom 0 0 0 H
  atom 0 0 0.22 H
  
  -----------------------------------------------------------------------
  Completed first pass over input file geometry.in .
  -----------------------------------------------------------------------
  

  Basic array size parameters:
  | Number of species                 :        1
  | Number of atoms                   :        2
  | Max. basis fn. angular momentum   :        2
  | Max. atomic/ionic basis occupied n:        1
  | Max. number of basis fn. types    :        2
  | Max. radial fns per species/type  :        6
  | Max. logarithmic grid size        :     1131
  | Max. radial integration grid size :       49
  | Max. angular integration grid size:      434
  | Max. angular grid division number :        8
  | Radial grid for Hartree potential :     1131
  | Number of spin channels           :        2

------------------------------------------------------------
          Reading file control.in.
------------------------------------------------------------
  XC: Using PBE gradient-corrected functionals.
  Spin treatment: Spin density functional theory - collinear spins.
  Initial spin moment per atom set according to Hund's rules.
  Scalar relativistic treatment of kinetic energy: on-site free-atom approximation to ZORA.
  Occupation type: Gaussian broadening, width =   0.100000E-02 eV.
  Charge =   0.000000E+00: Neutral system requested explicitly.
  Using non-empirical van der Waals correction (Hirshfeld partitioning):
  Kohn-Sham eigenvalues and eigenfunctions calculated by the ELPA eigensolver library.
  Using pulay charge density mixing.
  Charge density mixing - mixing parameter:     0.4000
  Spin density mixing - mixing parameter:     0.6000
  Convergence accuracy of self-consistent charge density: 0.1000E-03
  Convergence accuracy of sum of eigenvalues: 0.1000E-04
  Convergence accuracy of total energy: 0.1000E-04
  Maximum number of s.-c. iterations  :   100
  Number of empty states per atom:       10
 
  Reading configuration options for species H                   .
  | Found nuclear charge :   1.0000
  | Found atomic mass :    1.00794000000000      amu
  | Found l_max for Hartree potential  :   6
  | Found cutoff potl. onset [A], width [A], scale factor :    4.00000    2.00000    1.00000
  | Threshold for basis-dependent cutoff potential is   0.100000E-03
  | Found data for basic radial integration grid :    24 points, outermost radius =    7.000 A
  | Found multiplier for basic radial grid :   2
  | Found angular grid specification: user-specified.
  | Specified grid contains     6 separate shells.
  | Check grid settings after all constraints further below.
  | Found free-atom valence shell :  1 s   1.000
  | No ionic wave fns used. Skipping ion_occ.
  | Found hydrogenic basis function :  2 s   2.100
  | Found hydrogenic basis function :  2 p   3.500
  | Found hydrogenic basis function :  1 s   0.850
  | Found hydrogenic basis function :  2 p   3.700
  | Found hydrogenic basis function :  2 s   1.200
  | Found hydrogenic basis function :  3 d   7.000
  Species H                   : Missing cutoff potential type.
  Defaulting to exp(1/x)/(1-x)^2 type cutoff potential.
  Species H : No 'logarithmic' tag. Using default grid for free atom:
  | Default logarithmic grid data [bohr] : 0.1000E-03 0.1000E+03 0.1012E+01
  Species H : On-site basis accuracy parameter (for Gram-Schmidt orthonormalisation) not specified.
  Using default value basis_acc =  0.1000000E-03.
  Species H                   : Using default innermost maximum threshold i_radial=  2 for radial functions.
  Species H                   : Default cutoff onset for free atom density etc. : 0.40000000E+01 AA.
  Species H                   : Basic radial grid will be enhanced according to radial_multiplier =   2, to contain    49 grid points.
 
  Finished reading input file 'control.in'. Consistency checks are next.
 
  Target number of points in a grid batch is not set. Defaulting to  100
  Method for grid partitioning is not set. Defaulting to parallel hash+maxmin partitioning.
  Batch size limit is not set. Defaulting to    200
  By default, will store active basis functions for each batch.
  If in need of memory, prune_basis_once .false. can be used to disable this option.
  communication_type for Hartree potential was not specified.
  Defaulting to calc_hartree .
  Pulay mixer: Number of relevant iterations not set.
  Defaulting to    8 iterations.
  Pulay mixer: Number of initial linear mixing iterations not set.
  Defaulting to    0 iterations.
  Work space size for distributed Hartree potential not set.
  Defaulting to   0.200000E+03 MB.
  Algorithm-dependent basis array size parameters:
  | n_max_pulay                         :        8
  Calculation of forces was not defined in control.in. No forces will be calculated.
  Geometry relaxation not requested: no relaxation will be performed.
  No accuracy limit for integral partition fn. given. Defaulting to 0.1000E-14.
  No threshold value for u(r) in integrations given. Defaulting to 0.1000E-05.
  No accuracy for occupation numbers given. Defaulting to 0.1000E-07.
  No threshold value for occupation numbers given. Defaulting to 0.0000E+00.
  No accuracy for fermi level given. Defaulting to 0.1000E-19.
  Maximum # of iterations to find E_F not set. Defaulting to  200.
  Will not use alltoall communication since running on < 1024 CPUs.
  Threshold for basis singularities not set.
  Default threshold for basis singularities: 0.1000E-04
  partition_type (choice of integration weights) for integrals was not specified.
  | Using a version of the partition function of Stratmann and coworkers ('stratmann_smoother').
  | At each grid point, the set of atoms used to build the partition table is smoothly restricted to
  | only those atoms whose free-atom density would be non-zero at that grid point.
  Partitioning for Hartree potential was not defined. Using partition_type for integrals.
  | Adjusted default value of keyword multip_moments_threshold to:       0.10000000E-11
  | This value may affect high angular momentum components of the Hartree potential in periodic systems.
  No q(lm)/r^(l+1) cutoff set for long-range Hartree potential.
  | Using default value of  0.100000E-09 .
  | Verify using the multipole_threshold keyword.
  Defaulting to new monopole extrapolation.
  Density update method: automatic selection selected.
------------------------------------------------------------


------------------------------------------------------------
          Reading geometry description geometry.in.
------------------------------------------------------------
  Input structure read successfully.
  The structure contains        2 atoms,  and a total of          2.000 electrons.

  Input geometry:
  | No unit cell requested.
  | Atomic structure:
  |       Atom                x [A]            y [A]            z [A]
  |    1: Species H              0.000000         0.000000         0.000000
  |    2: Species H              0.000000         0.000000         0.220000
  |

  | The smallest distance between any two atoms is         0.22000000 AA.
  |
  | The first atom of this pair is atom number                      1 .
  | The second atom of this pair is atom number                     2 .

  Initial moments and charges:
  |  Atom   Moment         Charge        Species
  |     1  (Hund's rule)   0.000000E+00   H
  |     2  (Hund's rule)   0.000000E+00   H

  Structure-dependent array size parameters: 
  | Number of distinct atom types in initial rho :        1
  | Maximum number of distinct radial functions  :        7
  | Maximum number of basis functions            :       30
  | Number of Kohn-Sham states (occupied + empty):       11
------------------------------------------------------------

------------------------------------------------------------
          Preparing all fixed parts of the calculation.
------------------------------------------------------------
  Determining machine precision:
    2.225073858507201E-308
  Setting up grids for atomic and cluster calculations.

  Creating wave function, potential, and density for free atoms.

  Species: H

  List of occupied orbitals and eigenvalues:
    n    l              occ      energy [Ha]    energy [eV]
    1    0           1.0000        -0.238386        -6.4868

  Spin-polarized or charged system:
  Charge density initialized according to selected moments and charges.

  Creating spin-polarized density from free atoms.

  Species: H
  Charge:   0.000000
  applying Hund's rules ...

  List of occupied orbitals and eigenvalues:
    n    l      energy [Ha]    energy [eV]    occupation
  Spin-up
    1    0        -0.278991        -7.5917     1.00000000
  Spin-down
    1    0         0.090850         2.4721     0.00000000

  Creating fixed part of basis set: Ionic, confined, hydrogenic.
 
  H                    hydrogenic:
 
  List of hydrogenic basis orbitals: 
    n    l      effective z      eigenvalue [eV]  inner max. [A]     outer max. [A]     outer radius [A]   
    2    0         2.100000       -14.9965           0.193243           1.317208           5.373006
    2    1         3.500000       -41.6672           0.602369           0.602369           4.056063
    1    0         0.850000        -9.8292           0.624871           0.624871           5.373006
    2    1         3.700000       -46.5653           0.573622           0.573622           3.910002
    2    0         1.200000        -4.5995           0.334980           2.228188           5.505995
    3    2         7.000000       -74.0753           0.680699           0.680699           3.769201
 

  Adding cutoff potential to free-atom effective potential.
  Creating atomic-like basis functions for current effective potential.

  Species H                   :

  List of atomic basis orbitals and eigenvalues:
    n    l      energy [Ha]    energy [eV]    outer radius [A]
    1    0        -0.238386        -6.4868       5.373006

  Assembling full basis from fixed parts.
  | Species H :   atomic orbital   1 s accepted.
  | Species H :    hydro orbital   2 s accepted.
  | Species H :    hydro orbital   1 s accepted.
  | Species H :    hydro orbital   2 s accepted.
  | Species H :    hydro orbital   2 p accepted.
  | Species H :    hydro orbital   2 p accepted.
  | Species H :    hydro orbital   3 d accepted.
 
  Basis size parameters after reduction:
  | Total number of radial functions:        7
  | Total number of basis functions :       30
 
  Testing on-site integration grid accuracy.
  |  Species  Function  <phi|h_atom|phi> (log., in eV)  <phi|h_atom|phi> (rad., in eV)
           1        1                 -6.4870767962                 -6.4871688290
           1        2                 13.5032046589                 13.5028982997
           1        3                 32.8195184817                 32.8119941656
           1        4                 33.8513856511                 33.7670005767 ***
           1        5                 28.8544614965                 28.8544615203
           1        6                 59.6326952547                 59.6327656460
           1        7                 60.2719308513                 60.2719305949
 * Note: Onsite integrals marked "***" above are less accurate than
 * onsite_accuracy_threshold =    0.03000 eV. Usually, this is harmless.
 * When in doubt, tighten the "radial" and/or "radial_multiplier" flags to check.

  Preparing densities etc. for the partition functions (integrals / Hartree potential).

  Preparations completed.
  max(cpu_time)          :      0.086 s.
  Wall clock time (cpu1) :      0.086 s.
------------------------------------------------------------

------------------------------------------------------------
          Begin self-consistency loop: Initialization.

          Date     :  20220120, Time     :  151810.916
------------------------------------------------------------

  Initializing index lists of integration centers etc. from given atomic structure:
  | Number of centers in hartree potential         :         2
  | Number of centers in hartree multipole         :         2
  | Number of centers in electron density summation:         2
  | Number of centers in basis integrals           :         2
  | Number of centers in integrals                 :         2
  Using modified Scalapack Eigenvalue solver (ELPA)
  * Using 8 tasks for Scalapack Eigenvalue solver.
  Detailed listing of tasks and assigned k-points:
  (for non-periodic systems, the "k-point" denotes an internal label only)
   Task     0 k-point     1 on csky019
   Task     1 k-point     1 on csky019
   Task     2 k-point     1 on csky019
   Task     3 k-point     1 on csky019
   Task     4 k-point     1 on csky019
   Task     5 k-point     1 on csky019
   Task     6 k-point     1 on csky019
   Task     7 k-point     1 on csky019
  Tasks:     8 split into      4 X      2 BLACS grid
  Calculating blocksize based on n_basis =           30 max_nprow =            4 max_npcol =            2
  Scalapack blocksize set to:            4
  Required Scalapack workspace - INTEGER:            1 REAL:             1
  Partitioning the integration grid into batches with parallel hashing+maxmin method.
  | Number of batches:      439
  | Maximal batch size:     197
  | Minimal batch size:      49
  | Average batch size:      65.831
  | Standard deviation of batch sizes:      19.273

  Integration load balanced across     8 MPI tasks.
  Work distribution over tasks is as follows:
  Task     0 has       3614 integration points.
  Task     1 has       3623 integration points.
  Task     2 has       3594 integration points.
  Task     3 has       3577 integration points.
  Task     4 has       3644 integration points.
  Task     5 has       3587 integration points.
  Task     6 has       3675 integration points.
  Task     7 has       3586 integration points.
  Initializing partition tables, free-atom densities, potentials, etc. across the integration grid (initialize_grid_storage).
  | initialize_grid_storage: Actual outermost partition radius vs. multipole_radius_free
  | (-- VB: in principle, multipole_radius_free should be larger, hence this output)
  | Species        1: outer_partition_radius =              6.000000000000000 AA, multipole_radius_free =              6.071692442739658 AA.
  | Original list of interatomic distances with           2 x          2 entries is created.
  | Net number of integration points:    28900
  | of which are non-zero points    :    25266
  Obtaining max. number of non-zero basis functions in each batch (get_n_compute_maxes).
  | Maximal number of non-zero basis functions:       30 in task     0
  | Maximal number of non-zero basis functions:       30 in task     1
  | Maximal number of non-zero basis functions:       30 in task     2
  | Maximal number of non-zero basis functions:       30 in task     3
  | Maximal number of non-zero basis functions:       30 in task     4
  | Maximal number of non-zero basis functions:       30 in task     5
  | Maximal number of non-zero basis functions:       30 in task     6
  | Maximal number of non-zero basis functions:       30 in task     7
  Selecting the method for density update.
  Loop over occupied states selected for charge density update.
  Integrating Hamiltonian matrix: batch-based integration.
  Time summed over all CPUs for integration: real work        0.090 s, elapsed        0.103 s
  Integrating overlap matrix.
  Time summed over all CPUs for integration: real work        0.022 s, elapsed        0.026 s
  Deallocating overlap matrix.

  Updating Kohn-Sham eigenvalues, eigenvectors, occupation numbers, and Fermi level.
  Solving generalized eigenproblem
  Solving real symmetric generalised eigenvalue problem by standard ScaLAPACK.
  Transforming overlap matrix with ScaLAPACK and checking for singularities.
  : Overlap matrix is nonsingular, using Cholesky decomposition
  | Lowest eigenvalue:  0.170057E-04
  Factoring overlap matrix with Cholesky decomposition
  Using Cholesky factor for transformation
  Using 1-stage real ELPA solver
  Solving real symmetric generalised eigenvalue problem by standard ScaLAPACK.
  Using Cholesky factor for transformation
  Using 1-stage real ELPA solver
  Determining occupation numbers for Kohn-Sham eigenstates.
  | Chemical potential (Fermi level) in eV                 : -.17680206E+00
  | Error in electron count due to remaining E_F inaccuracy: 0.00000000E+00
  | Maximum occupation number of highest empty state:  0.00E+00

  Writing Kohn-Sham eigenvalues.

  Spin-up eigenvalues:

  State    Occupation    Eigenvalue [Ha]    Eigenvalue [eV]
      1       1.00000          -0.992740          -27.01382
      2       1.00000          -0.017373           -0.47274
      3       0.00000           0.007534            0.20502
      4       0.00000           0.167530            4.55871
      5       0.00000           0.199745            5.43535
      6       0.00000           0.199745            5.43535
      7       0.00000           0.233481            6.35335
      8       0.00000           0.607020           16.51785
      9       0.00000           0.607020           16.51785
     10       0.00000           0.672520           18.30019
     11       0.00000           0.699505           19.03450

  Spin-down eigenvalues:

  State    Occupation    Eigenvalue [Ha]    Eigenvalue [eV]
      1       0.00000           0.099017            2.69440
      2       0.00000           0.115037            3.13033
      3       0.00000           0.521479           14.19017
      4       0.00000           0.540294           14.70214
      5       0.00000           1.062471           28.91129
      6       0.00000           1.224559           33.32195
      7       0.00000           1.224559           33.32195
      8       0.00000           1.233166           33.55616
      9       0.00000           1.233166           33.55616
     10       0.00000           1.452839           39.53376
     11       0.00000           1.901342           51.73815

  Current spin moment of the entire structure :
  | N = N_up - N_down :    2.00
  | S                 :    1.00
  | J                 :    3.00

  Highest occupied state (VBM) at     -0.47274237 eV
  | Occupation number:      1.00000000
  | Spin channel:        1

  Lowest unoccupied state (CBM) at     0.20502006 eV
  | Occupation number:      0.00000000
  | Spin channel:        1

  Overall HOMO-LUMO gap:      0.67776244 eV.
  Calculating total energy contributions from superposition of free atom densities.

  Total energy components:
  | Sum of eigenvalues            :          -1.01011250 Ha         -27.48655972 eV
  | XC energy correction          :          -0.74052553 Ha         -20.15072496 eV
  | XC potential correction       :           0.95612975 Ha          26.01761437 eV
  | Free-atom electrostatic energy:           1.25692982 Ha          34.20280054 eV
  | Hartree energy correction     :           0.00000000 Ha           0.00000000 eV
  | van der Waals energy corr.    :           0.00000000 Ha           0.00000000 eV
  | Entropy correction            :           0.00000000 Ha           0.00000000 eV
  | ---------------------------
  | Total energy                  :           0.46242154 Ha          12.58313022 eV
  | Total energy, T -> 0          :           0.46242154 Ha          12.58313022 eV  <-- do not rely on this value for anything but (periodic) metals
  | Electronic free energy        :           0.46242154 Ha          12.58313022 eV

  Derived energy quantities:
  | Kinetic energy                :           1.28768794 Ha          35.03977156 eV
  | Electrostatic energy          :          -0.08474087 Ha          -2.30591638 eV
  | Energy correction for multipole
  | error in Hartree potential    :           0.00000000 Ha           0.00000000 eV
  | Sum of eigenvalues per atom                           :         -13.74327986 eV
  | Total energy (T->0) per atom                          :           6.29156511 eV  <-- do not rely on this value for anything but (periodic) metals
  | Electronic free energy per atom                       :           6.29156511 eV
  Initialize hartree_potential_storage
  Max. number of atoms included in rho_multipole:            2

  End scf initialization - timings             :  max(cpu_time)    wall_clock(cpu1)
  | Time for scf. initialization               :        0.056 s           0.061 s
  | Boundary condition initialization          :        0.000 s           0.001 s
  | Integration                                :        0.016 s           0.016 s
  | Solution of K.-S. eqns.                    :        0.013 s           0.013 s
  | Grid partitioning                          :        0.011 s           0.013 s
  | Preloading free-atom quantities on grid    :        0.005 s           0.005 s
  | Free-atom superposition energy             :        0.004 s           0.004 s
  | Total energy evaluation                    :        0.000 s           0.001 s
------------------------------------------------------------

------------------------------------------------------------
          Begin self-consistency iteration #    1

  Date     :  20220120, Time     :  151810.977
------------------------------------------------------------
  Evaluating new KS density.
  Integration grid: deviation in total charge (<rho> - N_e) =  -2.029342E-06
  | <rho_up-rho_dn> = N_up-N_dn =      2.0000; <|rho_up-rho_dn|> =      2.6285
  Pulay mixing of updated and previous charge densities.

  Evaluating partitioned Hartree potential by multipole expansion.
  | Analytical far-field extrapolation by fixed multipoles:
  | Hartree multipole sum: apparent total charge =  -0.250077E-04
  Summing up the Hartree potential.
  Time summed over all CPUs for potential: real work        0.035 s, elapsed        0.036 s
  | RMS charge density error from multipole expansion :   0.156721E-02

  Integrating Hamiltonian matrix: batch-based integration.
  Time summed over all CPUs for integration: real work        0.063 s, elapsed        0.065 s

  Updating Kohn-Sham eigenvalues, eigenvectors, occupation numbers, and Fermi level.
  Solving generalized eigenproblem
  Solving real symmetric generalised eigenvalue problem by standard ScaLAPACK.
  Using Cholesky factor for transformation
  Using 1-stage real ELPA solver
  Solving real symmetric generalised eigenvalue problem by standard ScaLAPACK.
  Using Cholesky factor for transformation
  Using 1-stage real ELPA solver
  Determining occupation numbers for Kohn-Sham eigenstates.
  | Chemical potential (Fermi level) in eV                 : -.10312875E+02
  | Error in electron count due to remaining E_F inaccuracy: 0.00000000E+00
  | Maximum occupation number of highest empty state:  0.00E+00

  Writing Kohn-Sham eigenvalues.

  Spin-up eigenvalues:

  State    Occupation    Eigenvalue [Ha]    Eigenvalue [eV]
      1       1.00000          -0.688838          -18.74424
      2       0.00000           0.055186            1.50168
      3       0.00000           0.062816            1.70931
      4       0.00000           0.189709            5.16223
      5       0.00000           0.206966            5.63183
      6       0.00000           0.206966            5.63183
      7       0.00000           0.306916            8.35160
      8       0.00000           0.626454           17.04668
      9       0.00000           0.626454           17.04668
     10       0.00000           0.720683           19.61080
     11       0.00000           0.731062           19.89322

  Spin-down eigenvalues:

  State    Occupation    Eigenvalue [Ha]    Eigenvalue [eV]
      1       1.00000          -0.525165          -14.29047
      2       0.00000           0.069832            1.90022
      3       0.00000           0.075939            2.06641
      4       0.00000           0.233784            6.36157
      5       0.00000           0.307632            8.37108
      6       0.00000           0.307632            8.37108
      7       0.00000           0.342743            9.32652
      8       0.00000           0.684105           18.61546
      9       0.00000           0.684105           18.61546
     10       0.00000           0.798503           21.72838
     11       0.00000           0.805718           21.92471

  Current spin moment of the entire structure :
  | N = N_up - N_down :    0.00
  | S                 :    0.00
  | J                 :    1.00

  Highest occupied state (VBM) at    -14.29046798 eV
  | Occupation number:      1.00000000
  | Spin channel:        2

  Lowest unoccupied state (CBM) at     1.50167664 eV
  | Occupation number:      0.00000000
  | Spin channel:        1

  Overall HOMO-LUMO gap:     15.79214462 eV.

  Total energy components:
  | Sum of eigenvalues            :          -1.21400332 Ha         -33.03471114 eV
  | XC energy correction          :          -0.38585858 Ha         -10.49974624 eV
  | XC potential correction       :           0.49145606 Ha          13.37319992 eV
  | Free-atom electrostatic energy:           1.25692982 Ha          34.20280054 eV
  | Hartree energy correction     :           0.06962495 Ha           1.89459138 eV
  | van der Waals energy corr.    :           0.00000000 Ha           0.00000000 eV
  | Entropy correction            :           0.00000000 Ha           0.00000000 eV
  | ---------------------------
  | Total energy                  :           0.21814893 Ha           5.93613445 eV
  | Total energy, T -> 0          :           0.21814893 Ha           5.93613445 eV  <-- do not rely on this value for anything but (periodic) metals
  | Electronic free energy        :           0.21814893 Ha           5.93613445 eV

  Derived energy quantities:
  | Kinetic energy                :           0.93372456 Ha          25.40793811 eV
  | Electrostatic energy          :          -0.32971705 Ha          -8.97205741 eV
  | Energy correction for multipole
  | error in Hartree potential    :           0.00015573 Ha           0.00423774 eV
  | Sum of eigenvalues per atom                           :         -16.51735557 eV
  | Total energy (T->0) per atom                          :           2.96806723 eV  <-- do not rely on this value for anything but (periodic) metals
  | Electronic free energy per atom                       :           2.96806723 eV

  Self-consistency convergence accuracy:
  | Change of charge/spin density : 0.1970E+00 0.1970E+00
  | Change of sum of eigenvalues  : -.5548E+01 eV
  | Change of total energy        : -.6647E+01 eV

  End self-consistency iteration #     1       :  max(cpu_time)    wall_clock(cpu1)
  | Time for this iteration                    :        0.026 s           0.026 s
  | Charge density update                      :        0.007 s           0.007 s
  | Density mixing                             :        0.001 s           0.000 s
  | Hartree multipole update                   :        0.001 s           0.002 s
  | Hartree multipole summation                :        0.005 s           0.005 s
  | Integration                                :        0.008 s           0.009 s
  | Solution of K.-S. eqns.                    :        0.002 s           0.001 s
  | Total energy evaluation                    :        0.000 s           0.000 s
------------------------------------------------------------

------------------------------------------------------------
          Begin self-consistency iteration #    2

  Date     :  20220120, Time     :  151811.009
------------------------------------------------------------
  Evaluating new KS density.
  Integration grid: deviation in total charge (<rho> - N_e) =  -1.217605E-06
  | <rho_up-rho_dn> = N_up-N_dn =     -2.0000; <|rho_up-rho_dn|> =      2.0000
  Pulay mixing of updated and previous charge densities.

  Evaluating partitioned Hartree potential by multipole expansion.
  | Analytical far-field extrapolation by fixed multipoles:
  | Hartree multipole sum: apparent total charge =  -0.216412E-04
  Summing up the Hartree potential.
  Time summed over all CPUs for potential: real work        0.035 s, elapsed        0.037 s
  | RMS charge density error from multipole expansion :   0.196709E-02

  Integrating Hamiltonian matrix: batch-based integration.
  Time summed over all CPUs for integration: real work        0.071 s, elapsed        0.076 s

  Updating Kohn-Sham eigenvalues, eigenvectors, occupation numbers, and Fermi level.
  Solving generalized eigenproblem
  Solving real symmetric generalised eigenvalue problem by standard ScaLAPACK.
  Using Cholesky factor for transformation
  Using 1-stage real ELPA solver
  Solving real symmetric generalised eigenvalue problem by standard ScaLAPACK.
  Using Cholesky factor for transformation
  Using 1-stage real ELPA solver
  Determining occupation numbers for Kohn-Sham eigenstates.
  | Chemical potential (Fermi level) in eV                 : -.16257130E+02
  | Error in electron count due to remaining E_F inaccuracy: 0.00000000E+00
  | Maximum occupation number of highest empty state:  0.00E+00

  Current spin moment of the entire structure :
  | N = N_up - N_down :    0.00
  | S                 :    0.00
  | J                 :    1.00

  Highest occupied state (VBM) at    -19.65594580 eV
  | Occupation number:      1.00000000
  | Spin channel:        2

  Lowest unoccupied state (CBM) at     1.03772046 eV
  | Occupation number:      0.00000000
  | Spin channel:        1

  Overall HOMO-LUMO gap:     20.69366626 eV.

  Total energy components:
  | Sum of eigenvalues            :          -1.68319163 Ha         -45.80197470 eV
  | XC energy correction          :          -0.64852675 Ha         -17.64731062 eV
  | XC potential correction       :           0.83346127 Ha          22.67963508 eV
  | Free-atom electrostatic energy:           1.25692982 Ha          34.20280054 eV
  | Hartree energy correction     :           0.01150961 Ha           0.31319239 eV
  | van der Waals energy corr.    :           0.00000000 Ha           0.00000000 eV
  | Entropy correction            :           0.00000000 Ha           0.00000000 eV
  | ---------------------------
  | Total energy                  :          -0.22981768 Ha          -6.25365732 eV
  | Total energy, T -> 0          :          -0.22981768 Ha          -6.25365732 eV  <-- do not rely on this value for anything but (periodic) metals
  | Electronic free energy        :          -0.22981768 Ha          -6.25365732 eV

  Derived energy quantities:
  | Kinetic energy                :           0.84554612 Ha          23.00848060 eV
  | Electrostatic energy          :          -0.42683706 Ha         -11.61482731 eV
  | Energy correction for multipole
  | error in Hartree potential    :           0.00019629 Ha           0.00534131 eV
  | Sum of eigenvalues per atom                           :         -22.90098735 eV
  | Total energy (T->0) per atom                          :          -3.12682866 eV  <-- do not rely on this value for anything but (periodic) metals
  | Electronic free energy per atom                       :          -3.12682866 eV

  Self-consistency convergence accuracy:
  | Change of charge/spin density : 0.2294E+00 0.4108E+00
  | Change of sum of eigenvalues  : -.1277E+02 eV
  | Change of total energy        : -.1219E+02 eV

  End self-consistency iteration #     2       :  max(cpu_time)    wall_clock(cpu1)
  | Time for this iteration                    :        0.030 s           0.027 s
  | Charge density update                      :        0.010 s           0.006 s
  | Density mixing                             :        0.001 s           0.002 s
  | Hartree multipole update                   :        0.001 s           0.001 s
  | Hartree multipole summation                :        0.005 s           0.005 s
  | Integration                                :        0.010 s           0.010 s
  | Solution of K.-S. eqns.                    :        0.002 s           0.002 s
  | Total energy evaluation                    :        0.000 s           0.001 s
------------------------------------------------------------

------------------------------------------------------------
          Begin self-consistency iteration #    3

  Date     :  20220120, Time     :  151811.040
------------------------------------------------------------
  Evaluating new KS density.
  Integration grid: deviation in total charge (<rho> - N_e) =  -1.082612E-06
  | <rho_up-rho_dn> = N_up-N_dn =     -1.6674; <|rho_up-rho_dn|> =      1.6674
  Pulay mixing of updated and previous charge densities.

  Evaluating partitioned Hartree potential by multipole expansion.
  | Analytical far-field extrapolation by fixed multipoles:
  | Hartree multipole sum: apparent total charge =  -0.255156E-04
  Summing up the Hartree potential.
  Time summed over all CPUs for potential: real work        0.033 s, elapsed        0.035 s
  | RMS charge density error from multipole expansion :   0.514960E-03

  Integrating Hamiltonian matrix: batch-based integration.
  Time summed over all CPUs for integration: real work        0.063 s, elapsed        0.066 s

  Updating Kohn-Sham eigenvalues, eigenvectors, occupation numbers, and Fermi level.
  Solving generalized eigenproblem
  Solving real symmetric generalised eigenvalue problem by standard ScaLAPACK.
  Using Cholesky factor for transformation
  Using 1-stage real ELPA solver
  Solving real symmetric generalised eigenvalue problem by standard ScaLAPACK.
  Using Cholesky factor for transformation
  Using 1-stage real ELPA solver
  Determining occupation numbers for Kohn-Sham eigenstates.
  | Chemical potential (Fermi level) in eV                 : -.10793965E+02
  | Error in electron count due to remaining E_F inaccuracy: 0.00000000E+00
  | Maximum occupation number of highest empty state:  0.00E+00

  Current spin moment of the entire structure :
  | N = N_up - N_down :    0.00
  | S                 :    0.00
  | J                 :    1.00

  Highest occupied state (VBM) at    -15.55355839 eV
  | Occupation number:      1.00000000
  | Spin channel:        2

  Lowest unoccupied state (CBM) at     1.17967856 eV
  | Occupation number:      0.00000000
  | Spin channel:        1

  Overall HOMO-LUMO gap:     16.73323695 eV.

  Total energy components:
  | Sum of eigenvalues            :          -1.27576599 Ha         -34.71535878 eV
  | XC energy correction          :          -0.37869035 Ha         -10.30468860 eV
  | XC potential correction       :           0.48314221 Ha          13.14696844 eV
  | Free-atom electrostatic energy:           1.25692982 Ha          34.20280054 eV
  | Hartree energy correction     :           0.11983852 Ha           3.26097210 eV
  | van der Waals energy corr.    :           0.00000000 Ha           0.00000000 eV
  | Entropy correction            :           0.00000000 Ha           0.00000000 eV
  | ---------------------------
  | Total energy                  :           0.20545422 Ha           5.59069370 eV
  | Total energy, T -> 0          :           0.20545422 Ha           5.59069370 eV  <-- do not rely on this value for anything but (periodic) metals
  | Electronic free energy        :           0.20545422 Ha           5.59069370 eV

  Derived energy quantities:
  | Kinetic energy                :           0.69405689 Ha          18.88624880 eV
  | Electrostatic energy          :          -0.10991232 Ha          -2.99086649 eV
  | Energy correction for multipole
  | error in Hartree potential    :           0.00004305 Ha           0.00117140 eV
  | Sum of eigenvalues per atom                           :         -17.35767939 eV
  | Total energy (T->0) per atom                          :           2.79534685 eV  <-- do not rely on this value for anything but (periodic) metals
  | Electronic free energy per atom                       :           2.79534685 eV

  Self-consistency convergence accuracy:
  | Change of charge/spin density : 0.4107E+00 0.3131E+00
  | Change of sum of eigenvalues  : 0.1109E+02 eV
  | Change of total energy        : 0.1184E+02 eV

  End self-consistency iteration #     3       :  max(cpu_time)    wall_clock(cpu1)
  | Time for this iteration                    :        0.025 s           0.025 s
  | Charge density update                      :        0.006 s           0.006 s
  | Density mixing                             :        0.001 s           0.001 s
  | Hartree multipole update                   :        0.001 s           0.002 s
  | Hartree multipole summation                :        0.005 s           0.004 s
  | Integration                                :        0.008 s           0.009 s
  | Solution of K.-S. eqns.                    :        0.002 s           0.002 s
  | Total energy evaluation                    :        0.000 s           0.001 s
------------------------------------------------------------

------------------------------------------------------------
          Begin self-consistency iteration #    4

  Date     :  20220120, Time     :  151811.070
------------------------------------------------------------
  Evaluating new KS density.
  Integration grid: deviation in total charge (<rho> - N_e) =  -1.201535E-06
  | <rho_up-rho_dn> = N_up-N_dn =     -1.9091; <|rho_up-rho_dn|> =      1.9091
  Pulay mixing of updated and previous charge densities.

  Evaluating partitioned Hartree potential by multipole expansion.
  | Analytical far-field extrapolation by fixed multipoles:
  | Hartree multipole sum: apparent total charge =   0.251866E-04
  Summing up the Hartree potential.
  Time summed over all CPUs for potential: real work        0.033 s, elapsed        0.036 s
  | RMS charge density error from multipole expansion :   0.382909E-01

  Integrating Hamiltonian matrix: batch-based integration.
  Time summed over all CPUs for integration: real work        0.060 s, elapsed        0.063 s

  Updating Kohn-Sham eigenvalues, eigenvectors, occupation numbers, and Fermi level.
  Solving generalized eigenproblem
  Solving real symmetric generalised eigenvalue problem by standard ScaLAPACK.
  Using Cholesky factor for transformation
  Using 1-stage real ELPA solver
  Solving real symmetric generalised eigenvalue problem by standard ScaLAPACK.
  Using Cholesky factor for transformation
  Using 1-stage real ELPA solver
  Determining occupation numbers for Kohn-Sham eigenstates.
  | Chemical potential (Fermi level) in eV                 : 0.27674966E+01
  | Error in electron count due to remaining E_F inaccuracy: 0.00000000E+00
  | Maximum occupation number of highest empty state:  0.00E+00

  Current spin moment of the entire structure :
  | N = N_up - N_down :    0.00
  | S                 :    0.00
  | J                 :    1.00

  Highest occupied state (VBM) at      1.73643581 eV
  | Occupation number:      1.00000000
  | Spin channel:        2
 * WARNING: The VBM is higher than the internal energy zero!

  Lowest unoccupied state (CBM) at     2.79222013 eV
  | Occupation number:      0.00000000
  | Spin channel:        1

  Overall HOMO-LUMO gap:      1.05578433 eV.

  Total energy components:
  | Sum of eigenvalues            :           0.12667091 Ha           3.44689095 eV
  | XC energy correction          :          -3.17682303 Ha         -86.44575285 eV
  | XC potential correction       :           4.11108124 Ha         111.86821235 eV
  | Free-atom electrostatic energy:           1.25692982 Ha          34.20280054 eV
  | Hartree energy correction     :          -5.94779310 Ha        -161.84768494 eV
  | van der Waals energy corr.    :           0.00000000 Ha           0.00000000 eV
  | Entropy correction            :          -0.00000000 Ha          -0.00000000 eV
  | ---------------------------
  | Total energy                  :          -3.62993415 Ha         -98.77553395 eV
  | Total energy, T -> 0          :          -3.62993415 Ha         -98.77553395 eV  <-- do not rely on this value for anything but (periodic) metals
  | Electronic free energy        :          -3.62993415 Ha         -98.77553395 eV

  Derived energy quantities:
  | Kinetic energy                :           3.45081594 Ha          93.90147938 eV
  | Electrostatic energy          :          -3.90392707 Ha        -106.23126048 eV
  | Energy correction for multipole
  | error in Hartree potential    :           0.00163022 Ha           0.04436051 eV
  | Sum of eigenvalues per atom                           :           1.72344547 eV
  | Total energy (T->0) per atom                          :         -49.38776698 eV  <-- do not rely on this value for anything but (periodic) metals
  | Electronic free energy per atom                       :         -49.38776698 eV

  Self-consistency convergence accuracy:
  | Change of charge/spin density : 0.3000E+00 0.3833E+00
  | Change of sum of eigenvalues  : 0.3816E+02 eV
  | Change of total energy        : -.1044E+03 eV

  End self-consistency iteration #     4       :  max(cpu_time)    wall_clock(cpu1)
  | Time for this iteration                    :        0.025 s           0.025 s
  | Charge density update                      :        0.006 s           0.006 s
  | Density mixing                             :        0.001 s           0.001 s
  | Hartree multipole update                   :        0.001 s           0.002 s
  | Hartree multipole summation                :        0.005 s           0.005 s
  | Integration                                :        0.008 s           0.008 s
  | Solution of K.-S. eqns.                    :        0.002 s           0.001 s
  | Total energy evaluation                    :        0.000 s           0.000 s
------------------------------------------------------------

------------------------------------------------------------
          Begin self-consistency iteration #    5

  Date     :  20220120, Time     :  151811.100
------------------------------------------------------------
  Evaluating new KS density.
  Integration grid: deviation in total charge (<rho> - N_e) =  -2.774260E-07
  | <rho_up-rho_dn> = N_up-N_dn =     -0.7757; <|rho_up-rho_dn|> =      1.3709
  Pulay mixing of updated and previous charge densities.

  Evaluating partitioned Hartree potential by multipole expansion.
  | Analytical far-field extrapolation by fixed multipoles:
  | Hartree multipole sum: apparent total charge =   0.185334E-04
  Summing up the Hartree potential.
  Time summed over all CPUs for potential: real work        0.034 s, elapsed        0.038 s
  | RMS charge density error from multipole expansion :   0.361174E-01

  Integrating Hamiltonian matrix: batch-based integration.
  Time summed over all CPUs for integration: real work        0.062 s, elapsed        0.066 s

  Updating Kohn-Sham eigenvalues, eigenvectors, occupation numbers, and Fermi level.
  Solving generalized eigenproblem
  Solving real symmetric generalised eigenvalue problem by standard ScaLAPACK.
  Using Cholesky factor for transformation
  Using 1-stage real ELPA solver
  Solving real symmetric generalised eigenvalue problem by standard ScaLAPACK.
  Using Cholesky factor for transformation
  Using 1-stage real ELPA solver
  Determining occupation numbers for Kohn-Sham eigenstates.
  | Chemical potential (Fermi level) in eV                 : 0.20060951E+01
  | Error in electron count due to remaining E_F inaccuracy: 0.00000000E+00
  | Maximum occupation number of highest empty state:  0.00E+00

  Current spin moment of the entire structure :
  | N = N_up - N_down :    0.00
  | S                 :    0.00
  | J                 :    1.00

  Highest occupied state (VBM) at      1.56595141 eV
  | Occupation number:      1.00000000
  | Spin channel:        2
 * WARNING: The VBM is higher than the internal energy zero!

  Lowest unoccupied state (CBM) at     2.27378919 eV
  | Occupation number:      0.00000000
  | Spin channel:        1

  Overall HOMO-LUMO gap:      0.70783778 eV.

  Total energy components:
  | Sum of eigenvalues            :           0.10825226 Ha           2.94569381 eV
  | XC energy correction          :          -2.97303341 Ha         -80.90035517 eV
  | XC potential correction       :           3.84520260 Ha         104.63328631 eV
  | Free-atom electrostatic energy:           1.25692982 Ha          34.20280054 eV
  | Hartree energy correction     :          -5.36468231 Ha        -145.98043303 eV
  | van der Waals energy corr.    :           0.00000000 Ha           0.00000000 eV
  | Entropy correction            :           0.00000000 Ha           0.00000000 eV
  | ---------------------------
  | Total energy                  :          -3.12733105 Ha         -85.09900754 eV
  | Total energy, T -> 0          :          -3.12733105 Ha         -85.09900754 eV  <-- do not rely on this value for anything but (periodic) metals
  | Electronic free energy        :          -3.12733105 Ha         -85.09900754 eV

  Derived energy quantities:
  | Kinetic energy                :           3.75018260 Ha         102.04766057 eV
  | Electrostatic energy          :          -3.90448023 Ha        -106.24631294 eV
  | Energy correction for multipole
  | error in Hartree potential    :           0.00166867 Ha           0.04540677 eV
  | Sum of eigenvalues per atom                           :           1.47284690 eV
  | Total energy (T->0) per atom                          :         -42.54950377 eV  <-- do not rely on this value for anything but (periodic) metals
  | Electronic free energy per atom                       :         -42.54950377 eV

  Self-consistency convergence accuracy:
  | Change of charge/spin density : 0.2492E+01 0.7112E+00
  | Change of sum of eigenvalues  : -.5012E+00 eV
  | Change of total energy        : 0.1368E+02 eV

  End self-consistency iteration #     5       :  max(cpu_time)    wall_clock(cpu1)
  | Time for this iteration                    :        0.026 s           0.026 s
  | Charge density update                      :        0.006 s           0.006 s
  | Density mixing                             :        0.002 s           0.001 s
  | Hartree multipole update                   :        0.001 s           0.002 s
  | Hartree multipole summation                :        0.006 s           0.005 s
  | Integration                                :        0.009 s           0.009 s
  | Solution of K.-S. eqns.                    :        0.001 s           0.001 s
  | Total energy evaluation                    :        0.000 s           0.000 s
------------------------------------------------------------

------------------------------------------------------------
          Begin self-consistency iteration #    6

  Date     :  20220120, Time     :  151811.129
------------------------------------------------------------
  Evaluating new KS density.
  Integration grid: deviation in total charge (<rho> - N_e) =  -1.968949E-07
  | <rho_up-rho_dn> = N_up-N_dn =     -0.5489; <|rho_up-rho_dn|> =      1.1684
  Pulay mixing of updated and previous charge densities.

  Evaluating partitioned Hartree potential by multipole expansion.
  | Analytical far-field extrapolation by fixed multipoles:
  | Hartree multipole sum: apparent total charge =  -0.634694E-04
  Summing up the Hartree potential.
  Time summed over all CPUs for potential: real work        0.033 s, elapsed        0.033 s
  | RMS charge density error from multipole expansion :   0.358296E-02

  Integrating Hamiltonian matrix: batch-based integration.
  Time summed over all CPUs for integration: real work        0.071 s, elapsed        0.077 s

  Updating Kohn-Sham eigenvalues, eigenvectors, occupation numbers, and Fermi level.
  Solving generalized eigenproblem
  Solving real symmetric generalised eigenvalue problem by standard ScaLAPACK.
  Using Cholesky factor for transformation
  Using 1-stage real ELPA solver
  Solving real symmetric generalised eigenvalue problem by standard ScaLAPACK.
  Using Cholesky factor for transformation
  Using 1-stage real ELPA solver
  Determining occupation numbers for Kohn-Sham eigenstates.
  | Chemical potential (Fermi level) in eV                 : -.21062419E+02
  | Error in electron count due to remaining E_F inaccuracy: 0.00000000E+00
  | Maximum occupation number of highest empty state:  0.00E+00

  Current spin moment of the entire structure :
  | N = N_up - N_down :    0.00
  | S                 :    0.00
  | J                 :    1.00

  Highest occupied state (VBM) at    -22.81100531 eV
  | Occupation number:      1.00000000
  | Spin channel:        1

  Lowest unoccupied state (CBM) at    -1.20209361 eV
  | Occupation number:      0.00000000
  | Spin channel:        2

  Overall HOMO-LUMO gap:     21.60891170 eV.

  Total energy components:
  | Sum of eigenvalues            :          -1.72766339 Ha         -47.01211287 eV
  | XC energy correction          :          -0.65767111 Ha         -17.89614143 eV
  | XC potential correction       :           0.84073942 Ha          22.87768366 eV
  | Free-atom electrostatic energy:           1.25692982 Ha          34.20280054 eV
  | Hartree energy correction     :           0.00334405 Ha           0.09099627 eV
  | van der Waals energy corr.    :           0.00000000 Ha           0.00000000 eV
  | Entropy correction            :           0.00000000 Ha           0.00000000 eV
  | ---------------------------
  | Total energy                  :          -0.28432121 Ha          -7.73677382 eV
  | Total energy, T -> 0          :          -0.28432121 Ha          -7.73677382 eV  <-- do not rely on this value for anything but (periodic) metals
  | Electronic free energy        :          -0.28432121 Ha          -7.73677382 eV

  Derived energy quantities:
  | Kinetic energy                :           1.04910336 Ha          28.54755483 eV
  | Electrostatic energy          :          -0.67575346 Ha         -18.38818723 eV
  | Energy correction for multipole
  | error in Hartree potential    :           0.00035351 Ha           0.00961947 eV
  | Sum of eigenvalues per atom                           :         -23.50605643 eV
  | Total energy (T->0) per atom                          :          -3.86838691 eV  <-- do not rely on this value for anything but (periodic) metals
  | Electronic free energy per atom                       :          -3.86838691 eV

  Self-consistency convergence accuracy:
  | Change of charge/spin density : 0.2361E+01 0.6245E+00
  | Change of sum of eigenvalues  : -.4996E+02 eV
  | Change of total energy        : 0.7736E+02 eV

  End self-consistency iteration #     6       :  max(cpu_time)    wall_clock(cpu1)
  | Time for this iteration                    :        0.027 s           0.026 s
  | Charge density update                      :        0.006 s           0.006 s
  | Density mixing                             :        0.002 s           0.001 s
  | Hartree multipole update                   :        0.001 s           0.002 s
  | Hartree multipole summation                :        0.005 s           0.004 s
  | Integration                                :        0.010 s           0.010 s
  | Solution of K.-S. eqns.                    :        0.002 s           0.002 s
  | Total energy evaluation                    :        0.000 s           0.000 s
------------------------------------------------------------

------------------------------------------------------------
          Begin self-consistency iteration #    7

  Date     :  20220120, Time     :  151811.161
------------------------------------------------------------
  Evaluating new KS density.
  Integration grid: deviation in total charge (<rho> - N_e) =  -1.053343E-08
  | <rho_up-rho_dn> = N_up-N_dn =      0.3704; <|rho_up-rho_dn|> =      0.4577
  Pulay mixing of updated and previous charge densities.

  Evaluating partitioned Hartree potential by multipole expansion.
  | Analytical far-field extrapolation by fixed multipoles:
  | Hartree multipole sum: apparent total charge =  -0.474301E-04
  Summing up the Hartree potential.
  Time summed over all CPUs for potential: real work        0.033 s, elapsed        0.033 s
  | RMS charge density error from multipole expansion :   0.539112E-02

  Integrating Hamiltonian matrix: batch-based integration.
  Time summed over all CPUs for integration: real work        0.070 s, elapsed        0.075 s

  Updating Kohn-Sham eigenvalues, eigenvectors, occupation numbers, and Fermi level.
  Solving generalized eigenproblem
  Solving real symmetric generalised eigenvalue problem by standard ScaLAPACK.
  Using Cholesky factor for transformation
  Using 1-stage real ELPA solver
  Solving real symmetric generalised eigenvalue problem by standard ScaLAPACK.
  Using Cholesky factor for transformation
  Using 1-stage real ELPA solver
  Determining occupation numbers for Kohn-Sham eigenstates.
  | Chemical potential (Fermi level) in eV                 : -.17756803E+02
  | Error in electron count due to remaining E_F inaccuracy: 0.00000000E+00
  | Maximum occupation number of highest empty state:  0.00E+00

  Current spin moment of the entire structure :
  | N = N_up - N_down :    0.00
  | S                 :    0.00
  | J                 :    1.00

  Highest occupied state (VBM) at    -20.67519873 eV
  | Occupation number:      1.00000000
  | Spin channel:        1

  Lowest unoccupied state (CBM) at    -0.87510247 eV
  | Occupation number:      0.00000000
  | Spin channel:        1

  Overall HOMO-LUMO gap:     19.80009626 eV.

  Total energy components:
  | Sum of eigenvalues            :          -1.51969875 Ha         -41.35310688 eV
  | XC energy correction          :          -0.74640324 Ha         -20.31066567 eV
  | XC potential correction       :           0.95422830 Ha          25.96587308 eV
  | Free-atom electrostatic energy:           1.25692982 Ha          34.20280054 eV
  | Hartree energy correction     :          -0.17650768 Ha          -4.80301832 eV
  | van der Waals energy corr.    :           0.00000000 Ha           0.00000000 eV
  | Entropy correction            :           0.00000000 Ha           0.00000000 eV
  | ---------------------------
  | Total energy                  :          -0.23145155 Ha          -6.29811725 eV
  | Total energy, T -> 0          :          -0.23145155 Ha          -6.29811725 eV  <-- do not rely on this value for anything but (periodic) metals
  | Electronic free energy        :          -0.23145155 Ha          -6.29811725 eV

  Derived energy quantities:
  | Kinetic energy                :           1.54967207 Ha          42.16872265 eV
  | Electrostatic energy          :          -1.03472038 Ha         -28.15617423 eV
  | Energy correction for multipole
  | error in Hartree potential    :           0.00051631 Ha           0.01404953 eV
  | Sum of eigenvalues per atom                           :         -20.67655344 eV
  | Total energy (T->0) per atom                          :          -3.14905863 eV  <-- do not rely on this value for anything but (periodic) metals
  | Electronic free energy per atom                       :          -3.14905863 eV

  Self-consistency convergence accuracy:
  | Change of charge/spin density : 0.3311E+00 0.8470E-01
  | Change of sum of eigenvalues  : 0.5659E+01 eV
  | Change of total energy        : 0.1439E+01 eV

  End self-consistency iteration #     7       :  max(cpu_time)    wall_clock(cpu1)
  | Time for this iteration                    :        0.028 s           0.026 s
  | Charge density update                      :        0.008 s           0.006 s
  | Density mixing                             :        0.002 s           0.002 s
  | Hartree multipole update                   :        0.001 s           0.001 s
  | Hartree multipole summation                :        0.004 s           0.005 s
  | Integration                                :        0.009 s           0.009 s
  | Solution of K.-S. eqns.                    :        0.001 s           0.002 s
  | Total energy evaluation                    :        0.000 s           0.001 s
------------------------------------------------------------

------------------------------------------------------------
          Begin self-consistency iteration #    8

  Date     :  20220120, Time     :  151811.189
------------------------------------------------------------
  Evaluating new KS density.
  Integration grid: deviation in total charge (<rho> - N_e) =  -1.535337E-07
  | <rho_up-rho_dn> = N_up-N_dn =     -0.0075; <|rho_up-rho_dn|> =      0.0971
  Pulay mixing of updated and previous charge densities.

  Evaluating partitioned Hartree potential by multipole expansion.
  | Analytical far-field extrapolation by fixed multipoles:
  | Hartree multipole sum: apparent total charge =  -0.746879E-05
  Summing up the Hartree potential.
  Time summed over all CPUs for potential: real work        0.032 s, elapsed        0.033 s
  | RMS charge density error from multipole expansion :   0.144024E-01

  Integrating Hamiltonian matrix: batch-based integration.
  Time summed over all CPUs for integration: real work        0.066 s, elapsed        0.072 s

  Updating Kohn-Sham eigenvalues, eigenvectors, occupation numbers, and Fermi level.
  Solving generalized eigenproblem
  Solving real symmetric generalised eigenvalue problem by standard ScaLAPACK.
  Using Cholesky factor for transformation
  Using 1-stage real ELPA solver
  Solving real symmetric generalised eigenvalue problem by standard ScaLAPACK.
  Using Cholesky factor for transformation
  Using 1-stage real ELPA solver
  Determining occupation numbers for Kohn-Sham eigenstates.
  | Chemical potential (Fermi level) in eV                 : -.52141598E+01
  | Error in electron count due to remaining E_F inaccuracy: 0.00000000E+00
  | Maximum occupation number of highest empty state:  0.00E+00

  Current spin moment of the entire structure :
  | N = N_up - N_down :    0.00
  | S                 :    0.00
  | J                 :    1.00

  Highest occupied state (VBM) at     -7.31702473 eV
  | Occupation number:      1.00000000
  | Spin channel:        2

  Lowest unoccupied state (CBM) at     0.63005358 eV
  | Occupation number:      0.00000000
  | Spin channel:        1

  Overall HOMO-LUMO gap:      7.94707831 eV.

  Total energy components:
  | Sum of eigenvalues            :          -0.55029829 Ha         -14.97437849 eV
  | XC energy correction          :          -1.27926401 Ha         -34.81054487 eV
  | XC potential correction       :           1.64310710 Ha          44.71121908 eV
  | Free-atom electrostatic energy:           1.25692982 Ha          34.20280054 eV
  | Hartree energy correction     :          -1.30143143 Ha         -35.41375108 eV
  | van der Waals energy corr.    :           0.00000000 Ha           0.00000000 eV
  | Entropy correction            :           0.00000000 Ha           0.00000000 eV
  | ---------------------------
  | Total energy                  :          -0.23095682 Ha          -6.28465482 eV
  | Total energy, T -> 0          :          -0.23095682 Ha          -6.28465482 eV  <-- do not rely on this value for anything but (periodic) metals
  | Electronic free energy        :          -0.23095682 Ha          -6.28465482 eV

  Derived energy quantities:
  | Kinetic energy                :           3.48401230 Ha          94.80479836 eV
  | Electrostatic energy          :          -2.43570511 Ha         -66.27890832 eV
  | Energy correction for multipole
  | error in Hartree potential    :           0.00116105 Ha           0.03159374 eV
  | Sum of eigenvalues per atom                           :          -7.48718925 eV
  | Total energy (T->0) per atom                          :          -3.14232741 eV  <-- do not rely on this value for anything but (periodic) metals
  | Electronic free energy per atom                       :          -3.14232741 eV

  Self-consistency convergence accuracy:
  | Change of charge/spin density : 0.1920E+00 0.5613E-02
  | Change of sum of eigenvalues  : 0.2638E+02 eV
  | Change of total energy        : 0.1346E-01 eV

  End self-consistency iteration #     8       :  max(cpu_time)    wall_clock(cpu1)
  | Time for this iteration                    :        0.026 s           0.025 s
  | Charge density update                      :        0.007 s           0.005 s
  | Density mixing                             :        0.002 s           0.002 s
  | Hartree multipole update                   :        0.001 s           0.001 s
  | Hartree multipole summation                :        0.004 s           0.005 s
  | Integration                                :        0.009 s           0.009 s
  | Solution of K.-S. eqns.                    :        0.001 s           0.001 s
  | Total energy evaluation                    :        0.000 s           0.000 s
------------------------------------------------------------

------------------------------------------------------------
          Begin self-consistency iteration #    9

  Date     :  20220120, Time     :  151811.219
------------------------------------------------------------
  Evaluating new KS density.
  Integration grid: deviation in total charge (<rho> - N_e) =  -4.911482E-08
  | <rho_up-rho_dn> = N_up-N_dn =     -0.0174; <|rho_up-rho_dn|> =      0.2059
  Pulay mixing of updated and previous charge densities.

  Evaluating partitioned Hartree potential by multipole expansion.
  | Analytical far-field extrapolation by fixed multipoles:
  | Hartree multipole sum: apparent total charge =  -0.576136E-05
  Summing up the Hartree potential.
  Time summed over all CPUs for potential: real work        0.032 s, elapsed        0.033 s
  | RMS charge density error from multipole expansion :   0.149622E-01

  Integrating Hamiltonian matrix: batch-based integration.
  Time summed over all CPUs for integration: real work        0.066 s, elapsed        0.072 s

  Updating Kohn-Sham eigenvalues, eigenvectors, occupation numbers, and Fermi level.
  Solving generalized eigenproblem
  Solving real symmetric generalised eigenvalue problem by standard ScaLAPACK.
  Using Cholesky factor for transformation
  Using 1-stage real ELPA solver
  Solving real symmetric generalised eigenvalue problem by standard ScaLAPACK.
  Using Cholesky factor for transformation
  Using 1-stage real ELPA solver
  Determining occupation numbers for Kohn-Sham eigenstates.
  | Chemical potential (Fermi level) in eV                 : -.45173113E+01
  | Error in electron count due to remaining E_F inaccuracy: 0.00000000E+00
  | Maximum occupation number of highest empty state:  0.00E+00

  Current spin moment of the entire structure :
  | N = N_up - N_down :    0.00
  | S                 :    0.00
  | J                 :    1.00

  Highest occupied state (VBM) at     -6.62284615 eV
  | Occupation number:      1.00000000
  | Spin channel:        2

  Lowest unoccupied state (CBM) at     0.75209796 eV
  | Occupation number:      0.00000000
  | Spin channel:        1

  Overall HOMO-LUMO gap:      7.37494411 eV.

  Total energy components:
  | Sum of eigenvalues            :          -0.49837708 Ha         -13.56153043 eV
  | XC energy correction          :          -1.31748691 Ha         -35.85064292 eV
  | XC potential correction       :           1.69262996 Ha          46.05880464 eV
  | Free-atom electrostatic energy:           1.25692982 Ha          34.20280054 eV
  | Hartree energy correction     :          -1.38434164 Ha         -37.66985265 eV
  | van der Waals energy corr.    :           0.00000000 Ha           0.00000000 eV
  | Entropy correction            :           0.00000000 Ha           0.00000000 eV
  | ---------------------------
  | Total energy                  :          -0.25064586 Ha          -6.82042082 eV
  | Total energy, T -> 0          :          -0.25064586 Ha          -6.82042082 eV  <-- do not rely on this value for anything but (periodic) metals
  | Electronic free energy        :          -0.25064586 Ha          -6.82042082 eV

  Derived energy quantities:
  | Kinetic energy                :           3.57167430 Ha          97.19020269 eV
  | Electrostatic energy          :          -2.50483325 Ha         -68.15998059 eV
  | Energy correction for multipole
  | error in Hartree potential    :           0.00119242 Ha           0.03244749 eV
  | Sum of eigenvalues per atom                           :          -6.78076521 eV
  | Total energy (T->0) per atom                          :          -3.41021041 eV  <-- do not rely on this value for anything but (periodic) metals
  | Electronic free energy per atom                       :          -3.41021041 eV

  Self-consistency convergence accuracy:
  | Change of charge/spin density : 0.5587E+00 0.1113E+00
  | Change of sum of eigenvalues  : 0.1413E+01 eV
  | Change of total energy        : -.5358E+00 eV

  End self-consistency iteration #     9       :  max(cpu_time)    wall_clock(cpu1)
  | Time for this iteration                    :        0.026 s           0.025 s
  | Charge density update                      :        0.006 s           0.005 s
  | Density mixing                             :        0.002 s           0.002 s
  | Hartree multipole update                   :        0.001 s           0.001 s
  | Hartree multipole summation                :        0.004 s           0.005 s
  | Integration                                :        0.009 s           0.009 s
  | Solution of K.-S. eqns.                    :        0.001 s           0.001 s
  | Total energy evaluation                    :        0.000 s           0.000 s
------------------------------------------------------------

------------------------------------------------------------
          Begin self-consistency iteration #   10

  Date     :  20220120, Time     :  151811.249
------------------------------------------------------------
  Evaluating new KS density.
  Integration grid: deviation in total charge (<rho> - N_e) =  -3.969836E-08
  | <rho_up-rho_dn> = N_up-N_dn =     -0.0148; <|rho_up-rho_dn|> =      0.2209
  Pulay mixing of updated and previous charge densities.

  Evaluating partitioned Hartree potential by multipole expansion.
  | Analytical far-field extrapolation by fixed multipoles:
  | Hartree multipole sum: apparent total charge =  -0.215842E-05
  Summing up the Hartree potential.
  Time summed over all CPUs for potential: real work        0.032 s, elapsed        0.033 s
  | RMS charge density error from multipole expansion :   0.165462E-01

  Integrating Hamiltonian matrix: batch-based integration.
  Time summed over all CPUs for integration: real work        0.067 s, elapsed        0.076 s

  Updating Kohn-Sham eigenvalues, eigenvectors, occupation numbers, and Fermi level.
  Solving generalized eigenproblem
  Solving real symmetric generalised eigenvalue problem by standard ScaLAPACK.
  Using Cholesky factor for transformation
  Using 1-stage real ELPA solver
  Solving real symmetric generalised eigenvalue problem by standard ScaLAPACK.
  Using Cholesky factor for transformation
  Using 1-stage real ELPA solver
  Determining occupation numbers for Kohn-Sham eigenstates.
  | Chemical potential (Fermi level) in eV                 : -.27083361E+01
  | Error in electron count due to remaining E_F inaccuracy: 0.00000000E+00
  | Maximum occupation number of highest empty state:  0.00E+00

  Current spin moment of the entire structure :
  | N = N_up - N_down :    0.00
  | S                 :    0.00
  | J                 :    1.00

  Highest occupied state (VBM) at     -4.74730027 eV
  | Occupation number:      1.00000000
  | Spin channel:        2

  Lowest unoccupied state (CBM) at     1.00987650 eV
  | Occupation number:      0.00000000
  | Spin channel:        2

  Overall HOMO-LUMO gap:      5.75717677 eV.

  Total energy components:
  | Sum of eigenvalues            :          -0.36119280 Ha          -9.82855623 eV
  | XC energy correction          :          -1.42626706 Ha         -38.81070144 eV
  | XC potential correction       :           1.83361095 Ha          49.89509254 eV
  | Free-atom electrostatic energy:           1.25692982 Ha          34.20280054 eV
  | Hartree energy correction     :          -1.62141827 Ha         -44.12103586 eV
  | van der Waals energy corr.    :           0.00000000 Ha           0.00000000 eV
  | Entropy correction            :           0.00000000 Ha           0.00000000 eV
  | ---------------------------
  | Total energy                  :          -0.31833737 Ha          -8.66240046 eV
  | Total energy, T -> 0          :          -0.31833737 Ha          -8.66240046 eV  <-- do not rely on this value for anything but (periodic) metals
  | Electronic free energy        :          -0.31833737 Ha          -8.66240046 eV

  Derived energy quantities:
  | Kinetic energy                :           3.79751517 Ha         103.33564557 eV
  | Electrostatic energy          :          -2.68958548 Ha         -73.18734459 eV
  | Energy correction for multipole
  | error in Hartree potential    :           0.00127644 Ha           0.03473362 eV
  | Sum of eigenvalues per atom                           :          -4.91427812 eV
  | Total energy (T->0) per atom                          :          -4.33120023 eV  <-- do not rely on this value for anything but (periodic) metals
  | Electronic free energy per atom                       :          -4.33120023 eV

  Self-consistency convergence accuracy:
  | Change of charge/spin density : 0.6087E+00 0.1166E+00
  | Change of sum of eigenvalues  : 0.3733E+01 eV
  | Change of total energy        : -.1842E+01 eV

  End self-consistency iteration #    10       :  max(cpu_time)    wall_clock(cpu1)
  | Time for this iteration                    :        0.026 s           0.026 s
  | Charge density update                      :        0.006 s           0.006 s
  | Density mixing                             :        0.002 s           0.001 s
  | Hartree multipole update                   :        0.001 s           0.002 s
  | Hartree multipole summation                :        0.004 s           0.004 s
  | Integration                                :        0.010 s           0.010 s
  | Solution of K.-S. eqns.                    :        0.001 s           0.002 s
  | Total energy evaluation                    :        0.000 s           0.001 s
------------------------------------------------------------

------------------------------------------------------------
          Begin self-consistency iteration #   11

  Date     :  20220120, Time     :  151811.280
------------------------------------------------------------
  Evaluating new KS density.
  Integration grid: deviation in total charge (<rho> - N_e) =  -3.437654E-09
  | <rho_up-rho_dn> = N_up-N_dn =      0.0071; <|rho_up-rho_dn|> =      0.2724
  Pulay mixing of updated and previous charge densities.

  Evaluating partitioned Hartree potential by multipole expansion.
  | Analytical far-field extrapolation by fixed multipoles:
  | Hartree multipole sum: apparent total charge =   0.139695E-06
  Summing up the Hartree potential.
  Time summed over all CPUs for potential: real work        0.032 s, elapsed        0.033 s
  | RMS charge density error from multipole expansion :   0.179400E-01

  Integrating Hamiltonian matrix: batch-based integration.
  Time summed over all CPUs for integration: real work        0.065 s, elapsed        0.072 s

  Updating Kohn-Sham eigenvalues, eigenvectors, occupation numbers, and Fermi level.
  Solving generalized eigenproblem
  Solving real symmetric generalised eigenvalue problem by standard ScaLAPACK.
  Using Cholesky factor for transformation
  Using 1-stage real ELPA solver
  Solving real symmetric generalised eigenvalue problem by standard ScaLAPACK.
  Using Cholesky factor for transformation
  Using 1-stage real ELPA solver
  Determining occupation numbers for Kohn-Sham eigenstates.
  | Chemical potential (Fermi level) in eV                 : -.14067664E+01
  | Error in electron count due to remaining E_F inaccuracy: 0.00000000E+00
  | Maximum occupation number of highest empty state:  0.00E+00

  Current spin moment of the entire structure :
  | N = N_up - N_down :    0.00
  | S                 :    0.00
  | J                 :    1.00

  Highest occupied state (VBM) at     -3.43484227 eV
  | Occupation number:      1.00000000
  | Spin channel:        2

  Lowest unoccupied state (CBM) at     1.23004408 eV
  | Occupation number:      0.00000000
  | Spin channel:        2

  Overall HOMO-LUMO gap:      4.66488634 eV.

  Total energy components:
  | Sum of eigenvalues            :          -0.26358664 Ha          -7.17255734 eV
  | XC energy correction          :          -1.52378864 Ha         -41.46439853 eV
  | XC potential correction       :           1.96009050 Ha          53.33677622 eV
  | Free-atom electrostatic energy:           1.25692982 Ha          34.20280054 eV
  | Hartree energy correction     :          -1.83127466 Ha         -49.83151902 eV
  | van der Waals energy corr.    :           0.00000000 Ha           0.00000000 eV
  | Entropy correction            :           0.00000000 Ha           0.00000000 eV
  | ---------------------------
  | Total energy                  :          -0.40162962 Ha         -10.92889814 eV
  | Total energy, T -> 0          :          -0.40162962 Ha         -10.92889814 eV  <-- do not rely on this value for anything but (periodic) metals
  | Electronic free energy        :          -0.40162962 Ha         -10.92889814 eV

  Derived energy quantities:
  | Kinetic energy                :           3.96253242 Ha         107.82599319 eV
  | Electrostatic energy          :          -2.84037340 Ha         -77.29049279 eV
  | Energy correction for multipole
  | error in Hartree potential    :           0.00134463 Ha           0.03658919 eV
  | Sum of eigenvalues per atom                           :          -3.58627867 eV
[...]
  | Change of sum of eigenvalues  : 0.8243E-04 eV
  | Change of total energy        : -.6233E-07 eV

  End self-consistency iteration #    27       :  max(cpu_time)    wall_clock(cpu1)
  | Time for this iteration                    :        0.026 s           0.025 s
  | Charge density update                      :        0.006 s           0.005 s
  | Density mixing                             :        0.002 s           0.002 s
  | Hartree multipole update                   :        0.001 s           0.001 s
  | Hartree multipole summation                :        0.004 s           0.005 s
  | Integration                                :        0.010 s           0.009 s
  | Solution of K.-S. eqns.                    :        0.001 s           0.001 s
  | Total energy evaluation                    :        0.000 s           0.001 s
------------------------------------------------------------

------------------------------------------------------------
          Begin self-consistency iteration #   28

  Date     :  20220120, Time     :  151811.799
------------------------------------------------------------
  Evaluating new KS density.
  Integration grid: deviation in total charge (<rho> - N_e) =  -2.009104E-11
  | <rho_up-rho_dn> = N_up-N_dn =      0.0000; <|rho_up-rho_dn|> =      0.0000
  Pulay mixing of updated and previous charge densities.

  Evaluating partitioned Hartree potential by multipole expansion.
  | Analytical far-field extrapolation by fixed multipoles:
  | Hartree multipole sum: apparent total charge =   0.658539E-05
  Summing up the Hartree potential.
  Time summed over all CPUs for potential: real work        0.032 s, elapsed        0.033 s
  | RMS charge density error from multipole expansion :   0.708538E-02

  Integrating Hamiltonian matrix: batch-based integration.
  Time summed over all CPUs for integration: real work        0.070 s, elapsed        0.075 s

  Updating Kohn-Sham eigenvalues, eigenvectors, occupation numbers, and Fermi level.
  Solving generalized eigenproblem
  Solving real symmetric generalised eigenvalue problem by standard ScaLAPACK.
  Using Cholesky factor for transformation
  Using 1-stage real ELPA solver
  Solving real symmetric generalised eigenvalue problem by standard ScaLAPACK.
  Using Cholesky factor for transformation
  Using 1-stage real ELPA solver
  Determining occupation numbers for Kohn-Sham eigenstates.
  | Chemical potential (Fermi level) in eV                 : -.12204027E+02
  | Error in electron count due to remaining E_F inaccuracy: 0.00000000E+00
  | Maximum occupation number of highest empty state:  0.00E+00

  Current spin moment of the entire structure :
  | N = N_up - N_down :    0.00
  | S                 :    0.00
  | J                 :    1.00

  Highest occupied state (VBM) at    -14.08953859 eV
  | Occupation number:      1.00000000
  | Spin channel:        2

  Lowest unoccupied state (CBM) at     1.19042507 eV
  | Occupation number:      0.00000000
  | Spin channel:        2

  Overall HOMO-LUMO gap:     15.27996366 eV.

  Total energy components:
  | Sum of eigenvalues            :          -1.03556207 Ha         -28.17907774 eV
  | XC energy correction          :          -0.93658285 Ha         -25.48571613 eV
  | XC potential correction       :           1.20064146 Ha          32.67111629 eV
  | Free-atom electrostatic energy:           1.25692982 Ha          34.20280054 eV
  | Hartree energy correction     :          -0.66886997 Ha         -18.20087798 eV
  | van der Waals energy corr.    :           0.00000000 Ha           0.00000000 eV
  | Entropy correction            :           0.00000000 Ha           0.00000000 eV
  | ---------------------------
  | Total energy                  :          -0.18344363 Ha          -4.99175502 eV
  | Total energy, T -> 0          :          -0.18344363 Ha          -4.99175502 eV  <-- do not rely on this value for anything but (periodic) metals
  | Electronic free energy        :          -0.18344363 Ha          -4.99175502 eV

  Derived energy quantities:
  | Kinetic energy                :           2.13639250 Ha          58.13419769 eV
  | Electrostatic energy          :          -1.38325327 Ha         -37.64023659 eV
  | Energy correction for multipole
  | error in Hartree potential    :           0.00064100 Ha           0.01744242 eV
  | Sum of eigenvalues per atom                           :         -14.08953887 eV
  | Total energy (T->0) per atom                          :          -2.49587751 eV  <-- do not rely on this value for anything but (periodic) metals
  | Electronic free energy per atom                       :          -2.49587751 eV

  Self-consistency convergence accuracy:
  | Change of charge/spin density : 0.2363E-06 0.1569E-06
  | Change of sum of eigenvalues  : 0.1147E-04 eV
  | Change of total energy        : 0.1214E-08 eV

  End self-consistency iteration #    28       :  max(cpu_time)    wall_clock(cpu1)
  | Time for this iteration                    :        0.027 s           0.026 s
  | Charge density update                      :        0.007 s           0.006 s
  | Density mixing                             :        0.002 s           0.002 s
  | Hartree multipole update                   :        0.001 s           0.001 s
  | Hartree multipole summation                :        0.004 s           0.005 s
  | Integration                                :        0.010 s           0.009 s
  | Solution of K.-S. eqns.                    :        0.001 s           0.002 s
  | Total energy evaluation                    :        0.000 s           0.001 s
------------------------------------------------------------

------------------------------------------------------------
          Begin self-consistency iteration #   29

  Date     :  20220120, Time     :  151811.829
------------------------------------------------------------
  Evaluating new KS density.
  Integration grid: deviation in total charge (<rho> - N_e) =  -5.529133E-12
  | <rho_up-rho_dn> = N_up-N_dn =     -0.0000; <|rho_up-rho_dn|> =      0.0000
  Pulay mixing of updated and previous charge densities.

  Evaluating partitioned Hartree potential by multipole expansion.
  | Analytical far-field extrapolation by fixed multipoles:
  | Hartree multipole sum: apparent total charge =   0.658553E-05
  Summing up the Hartree potential.
  Time summed over all CPUs for potential: real work        0.035 s, elapsed        0.040 s
  | RMS charge density error from multipole expansion :   0.708538E-02

  Integrating Hamiltonian matrix: batch-based integration.
  Time summed over all CPUs for integration: real work        0.070 s, elapsed        0.076 s

  Updating Kohn-Sham eigenvalues, eigenvectors, occupation numbers, and Fermi level.
  Solving generalized eigenproblem
  Solving real symmetric generalised eigenvalue problem by standard ScaLAPACK.
  Using Cholesky factor for transformation
  Using 1-stage real ELPA solver
  Solving real symmetric generalised eigenvalue problem by standard ScaLAPACK.
  Using Cholesky factor for transformation
  Using 1-stage real ELPA solver
  Determining occupation numbers for Kohn-Sham eigenstates.
  | Chemical potential (Fermi level) in eV                 : -.12204704E+02
  | Error in electron count due to remaining E_F inaccuracy: 0.00000000E+00
  | Maximum occupation number of highest empty state:  0.00E+00

  Current spin moment of the entire structure :
  | N = N_up - N_down :    0.00
  | S                 :    0.00
  | J                 :    1.00

  Highest occupied state (VBM) at    -14.08953889 eV
  | Occupation number:      1.00000000
  | Spin channel:        2

  Lowest unoccupied state (CBM) at     1.19054148 eV
  | Occupation number:      0.00000000
  | Spin channel:        1

  Overall HOMO-LUMO gap:     15.28008037 eV.

  Total energy components:
  | Sum of eigenvalues            :          -1.03556208 Ha         -28.17907795 eV
  | XC energy correction          :          -0.93658284 Ha         -25.48571578 eV
  | XC potential correction       :           1.20064144 Ha          32.67111584 eV
  | Free-atom electrostatic energy:           1.25692982 Ha          34.20280054 eV
  | Hartree energy correction     :          -0.66886996 Ha         -18.20087766 eV
  | van der Waals energy corr.    :           0.00000000 Ha           0.00000000 eV
  | Entropy correction            :           0.00000000 Ha           0.00000000 eV
  | ---------------------------
  | Total energy                  :          -0.18344363 Ha          -4.99175502 eV
  | Total energy, T -> 0          :          -0.18344363 Ha          -4.99175502 eV  <-- do not rely on this value for anything but (periodic) metals
  | Electronic free energy        :          -0.18344363 Ha          -4.99175502 eV

  Derived energy quantities:
  | Kinetic energy                :           2.13639242 Ha          58.13419566 eV
  | Electrostatic energy          :          -1.38325321 Ha         -37.64023490 eV
  | Energy correction for multipole
  | error in Hartree potential    :           0.00064100 Ha           0.01744242 eV
  | Sum of eigenvalues per atom                           :         -14.08953898 eV
  | Total energy (T->0) per atom                          :          -2.49587751 eV  <-- do not rely on this value for anything but (periodic) metals
  | Electronic free energy per atom                       :          -2.49587751 eV

  Self-consistency convergence accuracy:
  | Change of charge/spin density : 0.7225E-07 0.6745E-07
  | Change of sum of eigenvalues  : -.2164E-06 eV
  | Change of total energy        : 0.4890E-09 eV

  Writing Kohn-Sham eigenvalues.

  Spin-up eigenvalues:

  State    Occupation    Eigenvalue [Ha]    Eigenvalue [eV]
      1       1.00000          -0.517781          -14.08954
      2       0.00000           0.043752            1.19054
      3       0.00000           0.062799            1.70885
      4       0.00000           0.253089            6.88691
      5       0.00000           0.334658            9.10649
      6       0.00000           0.383133           10.42557
      7       0.00000           0.383133           10.42557
      8       0.00000           0.714637           19.44627
      9       0.00000           0.714637           19.44627
     10       0.00000           0.827572           22.51938
     11       0.00000           0.867752           23.61274

  Spin-down eigenvalues:

  State    Occupation    Eigenvalue [Ha]    Eigenvalue [eV]
      1       1.00000          -0.517781          -14.08954
      2       0.00000           0.043754            1.19061
      3       0.00000           0.062802            1.70892
      4       0.00000           0.253091            6.88696
      5       0.00000           0.334660            9.10655
      6       0.00000           0.383133           10.42557
      7       0.00000           0.383133           10.42557
      8       0.00000           0.714637           19.44627
      9       0.00000           0.714637           19.44627
     10       0.00000           0.827572           22.51938
     11       0.00000           0.867753           23.61275

  Current spin moment of the entire structure :
  | N = N_up - N_down :    0.00
  | S                 :    0.00
  | J                 :    1.00

  Highest occupied state (VBM) at    -14.08953889 eV
  | Occupation number:      1.00000000
  | Spin channel:        2

  Lowest unoccupied state (CBM) at     1.19054148 eV
  | Occupation number:      0.00000000
  | Spin channel:        1

  Overall HOMO-LUMO gap:     15.28008037 eV.

  Self-consistency cycle converged.

  End self-consistency iteration #    29       :  max(cpu_time)    wall_clock(cpu1)
  | Time for this iteration                    :        0.028 s           0.029 s
  | Charge density update                      :        0.007 s           0.006 s
  | Density mixing                             :        0.002 s           0.002 s
  | Hartree multipole update                   :        0.001 s           0.002 s
  | Hartree multipole summation                :        0.005 s           0.005 s
  | Integration                                :        0.010 s           0.010 s
  | Solution of K.-S. eqns.                    :        0.001 s           0.002 s
  | Total energy evaluation                    :        0.000 s           0.001 s
------------------------------------------------------------
  Obtaining max. number of non-zero basis functions in each batch .
  Evaluating KS electron density on previously omitted grid points.
  Evaluating non-empirical van der Waals correction (Tkatchenko/Scheffler 2009).
  Performing Hirshfeld analysis of fragment charges and moments.
  ----------------------------------------------------------------------
  | Atom     1: H
  |   Hirshfeld charge        :     -0.00000021
  |   Free atom volume        :     10.31539447
  |   Hirshfeld volume        :      2.89429564
  |   Hirshfeld spin moment   :      0.00000002
  |   Hirshfeld dipole vector :     -0.00000000       0.00000000      -0.03637553
  |   Hirshfeld dipole moment :      0.03637553
  |   Hirshfeld second moments:      0.20173465       0.00000000      -0.00000000
  |                                  0.00000000       0.20173465      -0.00000000
  |                                 -0.00000000      -0.00000000       0.19280758
  ----------------------------------------------------------------------
  | Atom     2: H
  |   Hirshfeld charge        :     -0.00000021
  |   Free atom volume        :     10.31539447
  |   Hirshfeld volume        :      2.89429564
  |   Hirshfeld spin moment   :      0.00000002
  |   Hirshfeld dipole vector :     -0.00000000       0.00000000       0.03637553
  |   Hirshfeld dipole moment :      0.03637553
  |   Hirshfeld second moments:      0.20173465       0.00000000      -0.00000000
  |                                  0.00000000       0.20173465       0.00000000
  |                                 -0.00000000       0.00000000       0.19280758
  ----------------------------------------------------------------------


  Total energy components:
  | Sum of eigenvalues            :          -1.03556208 Ha         -28.17907795 eV
  | XC energy correction          :          -0.93658284 Ha         -25.48571578 eV
  | XC potential correction       :           1.20064144 Ha          32.67111584 eV
  | Free-atom electrostatic energy:           1.25692982 Ha          34.20280054 eV
  | Hartree energy correction     :          -0.66886996 Ha         -18.20087766 eV
  | van der Waals energy corr.    :          -0.00000181 Ha          -0.00004914 eV
  | Entropy correction            :           0.00000000 Ha           0.00000000 eV
  | ---------------------------
  | Total energy                  :          -0.18344543 Ha          -4.99180416 eV
  | Total energy, T -> 0          :          -0.18344543 Ha          -4.99180416 eV  <-- do not rely on this value for anything but (periodic) metals
  | Electronic free energy        :          -0.18344543 Ha          -4.99180416 eV

  Derived energy quantities:
  | Kinetic energy                :           2.13639242 Ha          58.13419566 eV
  | Electrostatic energy          :          -1.38325321 Ha         -37.64023490 eV
  | Energy correction for multipole
  | error in Hartree potential    :           0.00064100 Ha           0.01744242 eV
  | Sum of eigenvalues per atom                           :         -14.08953898 eV
  | Total energy (T->0) per atom                          :          -2.49590208 eV  <-- do not rely on this value for anything but (periodic) metals
  | Electronic free energy per atom                       :          -2.49590208 eV
  Timings for VdW correction (Tkatchenko-Scheffler 2009 or later):
  | CPU time:        0.003 s, Wall clock time:        0.003 s.

  Energy and forces in a compact form:
  | Total energy uncorrected      :         -0.499180415568600E+01 eV
  | Total energy corrected        :         -0.499180415568600E+01 eV  <-- do not rely on this value for anything but (periodic) metals
  | Electronic free energy        :         -0.499180415568600E+01 eV

  ------------------------------------ 
  Start decomposition of the XC Energy 
  ------------------------------------ 
  Hartree-Fock part   :          0.000000000 Ha              0.000000000 eV
  ------------------------------------ 
  X Energy            :         -0.893115446 Ha            -24.302907814 eV
  C Energy GGA        :         -0.043467394 Ha             -1.182807964 eV
  Total XC Energy     :         -0.936582840 Ha            -25.485715777 eV
  LDA X and C from self-consistent density 
  X Energy LDA        :         -0.781204828 Ha            -21.257664947 eV
  C Energy LDA        :         -0.107175823 Ha             -2.916402517 eV
  ------------------------------------ 
  End decomposition of the XC Energy 
  ------------------------------------ 

------------------------------------------------------------------------------
  Final output of selected total energy values:

  The following output summarizes some interesting total energy values
  at the end of a run (AFTER all relaxation, molecular dynamics, etc.).

  | Total energy of the DFT / Hartree-Fock s.c.f. calculation      :             -4.991804156 eV
  | Final zero-broadening corrected energy (caution - metals only) :             -4.991804156 eV
  | For reference only, the value of 1 Hartree used in FHI-aims is :             27.211384500 eV

  Before relying on these values, please be sure to understand exactly which
  total energy value is referred to by a given number. Different objects may
  all carry the same name 'total energy'. Definitions:

  Total energy of the DFT / Hartree-Fock s.c.f. calculation:
  | Note that this energy does not include ANY quantities calculated after the
  | s.c.f. cycle, in particular not ANY RPA, MP2, etc. many-body perturbation terms.

  Final zero-broadening corrected energy:
  | For metallic systems only, a broadening of the occupation numbers at the Fermi
  | level can be extrapolated back to zero broadening by an electron-gas inspired
  | formula. For all systems that are not real metals, this value can be
  | meaningless and should be avoided.

------------------------------------------------------------------------------

------------------------------------------------------------
          Leaving FHI-aims.
          Date     :  20220120, Time     :  151811.867

          Computational steps:
          | Number of self-consistency cycles          :           29

          Detailed time accounting                     :  max(cpu_time)    wall_clock(cpu1)
          | Total time                                 :        1.023 s           1.132 s
          | Preparation time                           :        0.086 s           0.086 s
          | Grid partitioning                          :        0.011 s           0.013 s
          | Preloading free-atom quantities on grid    :        0.005 s           0.005 s
          | Free-atom superposition energy             :        0.004 s           0.004 s
          | Total time for integrations                :        0.294 s           0.296 s
          | Total time for solution of K.-S. equations :        0.058 s           0.061 s
          | Total time for density update              :        0.193 s           0.168 s
          | Total time for mixing                      :        0.052 s           0.053 s
          | Total time for Hartree multipole update    :        0.040 s           0.044 s
          | Total time for Hartree multipole sum       :        0.142 s           0.143 s
          | Total time for total energy evaluation     :        0.005 s           0.020 s
          | Total time for scaled ZORA corrections     :        0.000 s           0.000 s
          | Total time for vdW correction              :        0.003 s           0.003 s

          Have a nice day.
------------------------------------------------------------
