  MPI-parallelism will be employed.
------------------------------------------------------------
          Invoking FHI-aims ...
          Version 052014
          Git rev. (modified): 096c982 Merge branch master of fhiaims:/pub/localo[...]
          Compiled on 2016/12/16 at 15:22:01 on host login02.hpc.iitd.ac.in.

          When using FHI-aims, please cite the following reference:

          Volker Blum, Ralf Gehrke, Felix Hanke, Paula Havu,
          Ville Havu, Xinguo Ren, Karsten Reuter, and Matthias Scheffler,
          'Ab Initio Molecular Simulations with Numeric Atom-Centered Orbitals: FHI-aims',
          Computer Physics Communications 180, 2175-2196 (2009)

          For any questions about FHI-aims, please visit the aimsclub website
          with its forums and wiki. Contributions to both the forums and the
          wiki are warmly encouraged - they are for you, and everyone is welcome there.

------------------------------------------------------------

  Date     :  20220120, Time     :  153719.993
  Time zero on CPU 1             :   0.114880000000000E-01  s.
  Internal wall clock time zero  :           411925039.993  s.

  Using        8 parallel tasks.
  Task        0 on host csky019 reporting.
  Task        1 on host csky019 reporting.
  Task        2 on host csky019 reporting.
  Task        3 on host csky019 reporting.
  Task        4 on host csky019 reporting.
  Task        5 on host csky019 reporting.
  Task        6 on host csky019 reporting.
  Task        7 on host csky019 reporting.

  Performing system and environment tests:
  | Environment variable OMP_NUM_THREADS correctly set to 1.
  | Stacksize not measured: no C compiler
  | Checking for scalapack...
  | Testing pdtran()...
  | All pdtran() tests passed.

  Obtaining array dimensions for all initial allocations:
  
  -----------------------------------------------------------------------
  Parsing control.in (first pass over file, find array dimensions only).
  The contents of control.in will be repeated verbatim below
  unless switched off by setting 'verbatim_writeout .false.' .
  in the first line of control.in .
  -----------------------------------------------------------------------
  
    xc               pbe
    spin             collinear
    default_initial_moment hund
    relativistic     atomic_zora scalar 1e-9
    occupation_type  gaussian 0.001
    charge        0
    vdw_correction_hirshfeld
    KS_method        scalapack_fast
    mixer            pulay
    charge_mix_param  0.4
    spin_mix_param    0.6
    sc_accuracy_rho  1E-4
    sc_accuracy_eev  1E-5
    sc_accuracy_etot 1E-5
    sc_iter_limit    100
    empty_states     10
  ################################################################################
  #
  #  FHI-aims code project
  # Volker Blum, Fritz Haber Institute Berlin, 2009
  #
  #  Suggested "tight" defaults for H atom (to be pasted into control.in file)
  #
  ################################################################################
    species        H
  #     global species definitions
      nucleus             1
      mass                1.00794
  #
      l_hartree           6
  #
      cut_pot             4.0  2.0  1.0
      basis_dep_cutoff    1e-4
  #
      radial_base         24 7.0
      radial_multiplier   2
      angular_grids       specified
        division   0.1930   50
        division   0.3175  110
        division   0.4293  194
        division   0.5066  302
        division   0.5626  434
  #      division   0.5922  590
  #      division   0.6227  974
  #      division   0.6868 1202
  #      outer_grid  770
        outer_grid  434
  ################################################################################
  #
  #  Definition of "minimal" basis
  #
  ################################################################################
  #     valence basis states
      valence      1  s   1.
  #     ion occupancy
      ion_occ      1  s   0.5
  ################################################################################
  #
  #  Suggested additional basis functions. For production calculations,
  #  uncomment them one after another (the most important basis functions are
  #  listed first).
  #
  #  Basis constructed for dimers: 0.5 A, 0.7 A, 1.0 A, 1.5 A, 2.5 A
  #
  ################################################################################
  #  "First tier" - improvements: -1014.90 meV to -62.69 meV
       hydro 2 s 2.1
       hydro 2 p 3.5
  #  "Second tier" - improvements: -12.89 meV to -1.83 meV
       hydro 1 s 0.85
       hydro 2 p 3.7
       hydro 2 s 1.2
       hydro 3 d 7
  #  "Third tier" - improvements: -0.25 meV to -0.12 meV
  #     hydro 4 f 11.2
  #     hydro 3 p 4.8
  #     hydro 4 d 9
  #     hydro 3 s 3.2
  ################################################################################
  #
  # For methods that use the localized form of the "resolution of identity" for
  # the two-electron Coulomb operator (RI_method LVL), particularly Hartree-Fock and
  # hybrid density functional calculations, the highest accuracy can be obtained by
  # uncommenting the line beginning with "for_aux"  below, thus adding an extra g radial
  # function to the construction of the product basis set for the expansion.
  # See Ref. New J. Phys. 17, 093020 (2015) for more information, particularly Figs. 1 and 6.
  #
  ################################################################################
  #
  # for_aux hydro 5 g 6.0
  
  -----------------------------------------------------------------------
  Completed first pass over input file control.in .
  -----------------------------------------------------------------------
  
  
  -----------------------------------------------------------------------
  Parsing geometry.in (first pass over file, find array dimensions only).
  The contents of geometry.in will be repeated verbatim below
  unless switched off by setting 'verbatim_writeout .false.' .
  in the first line of geometry.in .
  -----------------------------------------------------------------------
  
  atom 0 0 0 H
  atom 0 0 0.35 H
  
  -----------------------------------------------------------------------
  Completed first pass over input file geometry.in .
  -----------------------------------------------------------------------
  

  Basic array size parameters:
  | Number of species                 :        1
  | Number of atoms                   :        2
  | Max. basis fn. angular momentum   :        2
  | Max. atomic/ionic basis occupied n:        1
  | Max. number of basis fn. types    :        2
  | Max. radial fns per species/type  :        6
  | Max. logarithmic grid size        :     1131
  | Max. radial integration grid size :       49
  | Max. angular integration grid size:      434
  | Max. angular grid division number :        8
  | Radial grid for Hartree potential :     1131
  | Number of spin channels           :        2

------------------------------------------------------------
          Reading file control.in.
------------------------------------------------------------
  XC: Using PBE gradient-corrected functionals.
  Spin treatment: Spin density functional theory - collinear spins.
  Initial spin moment per atom set according to Hund's rules.
  Scalar relativistic treatment of kinetic energy: on-site free-atom approximation to ZORA.
  Occupation type: Gaussian broadening, width =   0.100000E-02 eV.
  Charge =   0.000000E+00: Neutral system requested explicitly.
  Using non-empirical van der Waals correction (Hirshfeld partitioning):
  Kohn-Sham eigenvalues and eigenfunctions calculated by the ELPA eigensolver library.
  Using pulay charge density mixing.
  Charge density mixing - mixing parameter:     0.4000
  Spin density mixing - mixing parameter:     0.6000
  Convergence accuracy of self-consistent charge density: 0.1000E-03
  Convergence accuracy of sum of eigenvalues: 0.1000E-04
  Convergence accuracy of total energy: 0.1000E-04
  Maximum number of s.-c. iterations  :   100
  Number of empty states per atom:       10
 
  Reading configuration options for species H                   .
  | Found nuclear charge :   1.0000
  | Found atomic mass :    1.00794000000000      amu
  | Found l_max for Hartree potential  :   6
  | Found cutoff potl. onset [A], width [A], scale factor :    4.00000    2.00000    1.00000
  | Threshold for basis-dependent cutoff potential is   0.100000E-03
  | Found data for basic radial integration grid :    24 points, outermost radius =    7.000 A
  | Found multiplier for basic radial grid :   2
  | Found angular grid specification: user-specified.
  | Specified grid contains     6 separate shells.
  | Check grid settings after all constraints further below.
  | Found free-atom valence shell :  1 s   1.000
  | No ionic wave fns used. Skipping ion_occ.
  | Found hydrogenic basis function :  2 s   2.100
  | Found hydrogenic basis function :  2 p   3.500
  | Found hydrogenic basis function :  1 s   0.850
  | Found hydrogenic basis function :  2 p   3.700
  | Found hydrogenic basis function :  2 s   1.200
  | Found hydrogenic basis function :  3 d   7.000
  Species H                   : Missing cutoff potential type.
  Defaulting to exp(1/x)/(1-x)^2 type cutoff potential.
  Species H : No 'logarithmic' tag. Using default grid for free atom:
  | Default logarithmic grid data [bohr] : 0.1000E-03 0.1000E+03 0.1012E+01
  Species H : On-site basis accuracy parameter (for Gram-Schmidt orthonormalisation) not specified.
  Using default value basis_acc =  0.1000000E-03.
  Species H                   : Using default innermost maximum threshold i_radial=  2 for radial functions.
  Species H                   : Default cutoff onset for free atom density etc. : 0.40000000E+01 AA.
  Species H                   : Basic radial grid will be enhanced according to radial_multiplier =   2, to contain    49 grid points.
 
  Finished reading input file 'control.in'. Consistency checks are next.
 
  Target number of points in a grid batch is not set. Defaulting to  100
  Method for grid partitioning is not set. Defaulting to parallel hash+maxmin partitioning.
  Batch size limit is not set. Defaulting to    200
  By default, will store active basis functions for each batch.
  If in need of memory, prune_basis_once .false. can be used to disable this option.
  communication_type for Hartree potential was not specified.
  Defaulting to calc_hartree .
  Pulay mixer: Number of relevant iterations not set.
  Defaulting to    8 iterations.
  Pulay mixer: Number of initial linear mixing iterations not set.
  Defaulting to    0 iterations.
  Work space size for distributed Hartree potential not set.
  Defaulting to   0.200000E+03 MB.
  Algorithm-dependent basis array size parameters:
  | n_max_pulay                         :        8
  Calculation of forces was not defined in control.in. No forces will be calculated.
  Geometry relaxation not requested: no relaxation will be performed.
  No accuracy limit for integral partition fn. given. Defaulting to 0.1000E-14.
  No threshold value for u(r) in integrations given. Defaulting to 0.1000E-05.
  No accuracy for occupation numbers given. Defaulting to 0.1000E-07.
  No threshold value for occupation numbers given. Defaulting to 0.0000E+00.
  No accuracy for fermi level given. Defaulting to 0.1000E-19.
  Maximum # of iterations to find E_F not set. Defaulting to  200.
  Will not use alltoall communication since running on < 1024 CPUs.
  Threshold for basis singularities not set.
  Default threshold for basis singularities: 0.1000E-04
  partition_type (choice of integration weights) for integrals was not specified.
  | Using a version of the partition function of Stratmann and coworkers ('stratmann_smoother').
  | At each grid point, the set of atoms used to build the partition table is smoothly restricted to
  | only those atoms whose free-atom density would be non-zero at that grid point.
  Partitioning for Hartree potential was not defined. Using partition_type for integrals.
  | Adjusted default value of keyword multip_moments_threshold to:       0.10000000E-11
  | This value may affect high angular momentum components of the Hartree potential in periodic systems.
  No q(lm)/r^(l+1) cutoff set for long-range Hartree potential.
  | Using default value of  0.100000E-09 .
  | Verify using the multipole_threshold keyword.
  Defaulting to new monopole extrapolation.
  Density update method: automatic selection selected.
------------------------------------------------------------


------------------------------------------------------------
          Reading geometry description geometry.in.
------------------------------------------------------------
  Input structure read successfully.
  The structure contains        2 atoms,  and a total of          2.000 electrons.

  Input geometry:
  | No unit cell requested.
  | Atomic structure:
  |       Atom                x [A]            y [A]            z [A]
  |    1: Species H              0.000000         0.000000         0.000000
  |    2: Species H              0.000000         0.000000         0.350000
  |

  | The smallest distance between any two atoms is         0.35000000 AA.
  |
  | The first atom of this pair is atom number                      1 .
  | The second atom of this pair is atom number                     2 .

  Initial moments and charges:
  |  Atom   Moment         Charge        Species
  |     1  (Hund's rule)   0.000000E+00   H
  |     2  (Hund's rule)   0.000000E+00   H

  Structure-dependent array size parameters: 
  | Number of distinct atom types in initial rho :        1
  | Maximum number of distinct radial functions  :        7
  | Maximum number of basis functions            :       30
  | Number of Kohn-Sham states (occupied + empty):       11
------------------------------------------------------------

------------------------------------------------------------
          Preparing all fixed parts of the calculation.
------------------------------------------------------------
  Determining machine precision:
    2.225073858507201E-308
  Setting up grids for atomic and cluster calculations.

  Creating wave function, potential, and density for free atoms.

  Species: H

  List of occupied orbitals and eigenvalues:
    n    l              occ      energy [Ha]    energy [eV]
    1    0           1.0000        -0.238386        -6.4868

  Spin-polarized or charged system:
  Charge density initialized according to selected moments and charges.

  Creating spin-polarized density from free atoms.

  Species: H
  Charge:   0.000000
  applying Hund's rules ...

  List of occupied orbitals and eigenvalues:
    n    l      energy [Ha]    energy [eV]    occupation
  Spin-up
    1    0        -0.278991        -7.5917     1.00000000
  Spin-down
    1    0         0.090850         2.4721     0.00000000

  Creating fixed part of basis set: Ionic, confined, hydrogenic.
 
  H                    hydrogenic:
 
  List of hydrogenic basis orbitals: 
    n    l      effective z      eigenvalue [eV]  inner max. [A]     outer max. [A]     outer radius [A]   
    2    0         2.100000       -14.9965           0.193243           1.317208           5.373006
    2    1         3.500000       -41.6672           0.602369           0.602369           4.056063
    1    0         0.850000        -9.8292           0.624871           0.624871           5.373006
    2    1         3.700000       -46.5653           0.573622           0.573622           3.910002
    2    0         1.200000        -4.5995           0.334980           2.228188           5.505995
    3    2         7.000000       -74.0753           0.680699           0.680699           3.769201
 

  Adding cutoff potential to free-atom effective potential.
  Creating atomic-like basis functions for current effective potential.

  Species H                   :

  List of atomic basis orbitals and eigenvalues:
    n    l      energy [Ha]    energy [eV]    outer radius [A]
    1    0        -0.238386        -6.4868       5.373006

  Assembling full basis from fixed parts.
  | Species H :   atomic orbital   1 s accepted.
  | Species H :    hydro orbital   2 s accepted.
  | Species H :    hydro orbital   1 s accepted.
  | Species H :    hydro orbital   2 s accepted.
  | Species H :    hydro orbital   2 p accepted.
  | Species H :    hydro orbital   2 p accepted.
  | Species H :    hydro orbital   3 d accepted.
 
  Basis size parameters after reduction:
  | Total number of radial functions:        7
  | Total number of basis functions :       30
 
  Testing on-site integration grid accuracy.
  |  Species  Function  <phi|h_atom|phi> (log., in eV)  <phi|h_atom|phi> (rad., in eV)
           1        1                 -6.4870767962                 -6.4871688290
           1        2                 13.5032046589                 13.5028982997
           1        3                 32.8195184817                 32.8119941656
           1        4                 33.8513856511                 33.7670005767 ***
           1        5                 28.8544614965                 28.8544615203
           1        6                 59.6326952547                 59.6327656460
           1        7                 60.2719308513                 60.2719305949
 * Note: Onsite integrals marked "***" above are less accurate than
 * onsite_accuracy_threshold =    0.03000 eV. Usually, this is harmless.
 * When in doubt, tighten the "radial" and/or "radial_multiplier" flags to check.

  Preparing densities etc. for the partition functions (integrals / Hartree potential).

  Preparations completed.
  max(cpu_time)          :      0.077 s.
  Wall clock time (cpu1) :      0.078 s.
------------------------------------------------------------

------------------------------------------------------------
          Begin self-consistency loop: Initialization.

          Date     :  20220120, Time     :  153720.141
------------------------------------------------------------

  Initializing index lists of integration centers etc. from given atomic structure:
  | Number of centers in hartree potential         :         2
  | Number of centers in hartree multipole         :         2
  | Number of centers in electron density summation:         2
  | Number of centers in basis integrals           :         2
  | Number of centers in integrals                 :         2
  Using modified Scalapack Eigenvalue solver (ELPA)
  * Using 8 tasks for Scalapack Eigenvalue solver.
  Detailed listing of tasks and assigned k-points:
  (for non-periodic systems, the "k-point" denotes an internal label only)
   Task     0 k-point     1 on csky019
   Task     1 k-point     1 on csky019
   Task     2 k-point     1 on csky019
   Task     3 k-point     1 on csky019
   Task     4 k-point     1 on csky019
   Task     5 k-point     1 on csky019
   Task     6 k-point     1 on csky019
   Task     7 k-point     1 on csky019
  Tasks:     8 split into      4 X      2 BLACS grid
  Calculating blocksize based on n_basis =           30 max_nprow =            4 max_npcol =            2
  Scalapack blocksize set to:            4
  Required Scalapack workspace - INTEGER:            1 REAL:             1
  Partitioning the integration grid into batches with parallel hashing+maxmin method.
  | Number of batches:      442
  | Maximal batch size:     197
  | Minimal batch size:      49
  | Average batch size:      65.385
  | Standard deviation of batch sizes:      18.647

  Integration load balanced across     8 MPI tasks.
  Work distribution over tasks is as follows:
  Task     0 has       3639 integration points.
  Task     1 has       3628 integration points.
  Task     2 has       3615 integration points.
  Task     3 has       3586 integration points.
  Task     4 has       3681 integration points.
  Task     5 has       3586 integration points.
  Task     6 has       3585 integration points.
  Task     7 has       3580 integration points.
  Initializing partition tables, free-atom densities, potentials, etc. across the integration grid (initialize_grid_storage).
  | initialize_grid_storage: Actual outermost partition radius vs. multipole_radius_free
  | (-- VB: in principle, multipole_radius_free should be larger, hence this output)
  | Species        1: outer_partition_radius =              6.000000000000000 AA, multipole_radius_free =              6.071692442739658 AA.
  | Original list of interatomic distances with           2 x          2 entries is created.
  | Net number of integration points:    28900
  | of which are non-zero points    :    25672
  Obtaining max. number of non-zero basis functions in each batch (get_n_compute_maxes).
  | Maximal number of non-zero basis functions:       30 in task     0
  | Maximal number of non-zero basis functions:       30 in task     1
  | Maximal number of non-zero basis functions:       30 in task     2
  | Maximal number of non-zero basis functions:       30 in task     3
  | Maximal number of non-zero basis functions:       30 in task     4
  | Maximal number of non-zero basis functions:       30 in task     5
  | Maximal number of non-zero basis functions:       30 in task     6
  | Maximal number of non-zero basis functions:       30 in task     7
  Selecting the method for density update.
  Loop over occupied states selected for charge density update.
  Integrating Hamiltonian matrix: batch-based integration.
  Time summed over all CPUs for integration: real work        0.081 s, elapsed        0.084 s
  Integrating overlap matrix.
  Time summed over all CPUs for integration: real work        0.019 s, elapsed        0.028 s
  Deallocating overlap matrix.

  Updating Kohn-Sham eigenvalues, eigenvectors, occupation numbers, and Fermi level.
  Solving generalized eigenproblem
  Solving real symmetric generalised eigenvalue problem by standard ScaLAPACK.
  Transforming overlap matrix with ScaLAPACK and checking for singularities.
  : Overlap matrix is nonsingular, using Cholesky decomposition
  | Lowest eigenvalue:  0.389182E-04
  Factoring overlap matrix with Cholesky decomposition
  Using Cholesky factor for transformation
  Using 1-stage real ELPA solver
  Solving real symmetric generalised eigenvalue problem by standard ScaLAPACK.
  Using Cholesky factor for transformation
  Using 1-stage real ELPA solver
  Determining occupation numbers for Kohn-Sham eigenstates.
  | Chemical potential (Fermi level) in eV                 : -.23518004E+00
  | Error in electron count due to remaining E_F inaccuracy: 0.00000000E+00
  | Maximum occupation number of highest empty state:  0.00E+00

  Writing Kohn-Sham eigenvalues.

  Spin-up eigenvalues:

  State    Occupation    Eigenvalue [Ha]    Eigenvalue [eV]
      1       1.00000          -0.857715          -23.33961
      2       1.00000          -0.009503           -0.25858
      3       0.00000          -0.001304           -0.03549
      4       0.00000           0.148466            4.03996
      5       0.00000           0.200866            5.46585
      6       0.00000           0.200866            5.46585
      7       0.00000           0.250219            6.80881
      8       0.00000           0.607171           16.52196
      9       0.00000           0.638863           17.38436
     10       0.00000           0.638863           17.38436
     11       0.00000           0.706898           19.23568

  Spin-down eigenvalues:

  State    Occupation    Eigenvalue [Ha]    Eigenvalue [eV]
      1       0.00000           0.099229            2.70016
      2       0.00000           0.108952            2.96473
      3       0.00000           0.519871           14.14641
      4       0.00000           0.524629           14.27588
      5       0.00000           1.100124           29.93589
      6       0.00000           1.207170           32.84875
      7       0.00000           1.207170           32.84875
      8       0.00000           1.309830           35.64228
      9       0.00000           1.309830           35.64228
     10       0.00000           1.499184           40.79487
     11       0.00000           1.746865           47.53462

  Current spin moment of the entire structure :
  | N = N_up - N_down :    2.00
  | S                 :    1.00
  | J                 :    3.00

  Highest occupied state (VBM) at     -0.25858402 eV
  | Occupation number:      1.00000000
  | Spin channel:        1

  Lowest unoccupied state (CBM) at    -0.03549033 eV
  | Occupation number:      0.00000000
  | Spin channel:        1

  Overall HOMO-LUMO gap:      0.22309370 eV.
  Calculating total energy contributions from superposition of free atom densities.

  Total energy components:
  | Sum of eigenvalues            :          -0.86721781 Ha         -23.59819724 eV
  | XC energy correction          :          -0.72881360 Ha         -19.83202702 eV
  | XC potential correction       :           0.94111200 Ha          25.60896060 eV
  | Free-atom electrostatic energy:           0.38021528 Ha          10.34618404 eV
  | Hartree energy correction     :           0.00000000 Ha           0.00000000 eV
  | van der Waals energy corr.    :           0.00000000 Ha           0.00000000 eV
  | Entropy correction            :          -0.00000000 Ha          -0.00000000 eV
  | ---------------------------
  | Total energy                  :          -0.27470413 Ha          -7.47507960 eV
  | Total energy, T -> 0          :          -0.27470413 Ha          -7.47507960 eV  <-- do not rely on this value for anything but (periodic) metals
  | Electronic free energy        :          -0.27470413 Ha          -7.47507960 eV

  Derived energy quantities:
  | Kinetic energy                :           1.30354419 Ha          35.47124226 eV
  | Electrostatic energy          :          -0.84943472 Ha         -23.11429485 eV
  | Energy correction for multipole
  | error in Hartree potential    :           0.00000000 Ha           0.00000000 eV
  | Sum of eigenvalues per atom                           :         -11.79909862 eV
  | Total energy (T->0) per atom                          :          -3.73753980 eV  <-- do not rely on this value for anything but (periodic) metals
  | Electronic free energy per atom                       :          -3.73753980 eV
  Initialize hartree_potential_storage
  Max. number of atoms included in rho_multipole:            2

  End scf initialization - timings             :  max(cpu_time)    wall_clock(cpu1)
  | Time for scf. initialization               :        0.041 s           0.041 s
  | Boundary condition initialization          :        0.000 s           0.000 s
  | Integration                                :        0.014 s           0.015 s
  | Solution of K.-S. eqns.                    :        0.007 s           0.007 s
  | Grid partitioning                          :        0.007 s           0.007 s
  | Preloading free-atom quantities on grid    :        0.004 s           0.004 s
  | Free-atom superposition energy             :        0.002 s           0.002 s
  | Total energy evaluation                    :        0.000 s           0.001 s
------------------------------------------------------------

------------------------------------------------------------
          Begin self-consistency iteration #    1

  Date     :  20220120, Time     :  153720.182
------------------------------------------------------------
  Evaluating new KS density.
  Integration grid: deviation in total charge (<rho> - N_e) =  -2.232318E-08
  | <rho_up-rho_dn> = N_up-N_dn =      2.0000; <|rho_up-rho_dn|> =      2.5315
  Pulay mixing of updated and previous charge densities.

  Evaluating partitioned Hartree potential by multipole expansion.
  | Analytical far-field extrapolation by fixed multipoles:
  | Hartree multipole sum: apparent total charge =  -0.260433E-04
  Summing up the Hartree potential.
  Time summed over all CPUs for potential: real work        0.033 s, elapsed        0.034 s
  | RMS charge density error from multipole expansion :   0.769282E-03

  Integrating Hamiltonian matrix: batch-based integration.
  Time summed over all CPUs for integration: real work        0.063 s, elapsed        0.069 s

  Updating Kohn-Sham eigenvalues, eigenvectors, occupation numbers, and Fermi level.
  Solving generalized eigenproblem
  Solving real symmetric generalised eigenvalue problem by standard ScaLAPACK.
  Using Cholesky factor for transformation
  Using 1-stage real ELPA solver
  Solving real symmetric generalised eigenvalue problem by standard ScaLAPACK.
  Using Cholesky factor for transformation
  Using 1-stage real ELPA solver
  Determining occupation numbers for Kohn-Sham eigenstates.
  | Chemical potential (Fermi level) in eV                 : -.92694872E+01
  | Error in electron count due to remaining E_F inaccuracy: 0.00000000E+00
  | Maximum occupation number of highest empty state:  0.00E+00

  Writing Kohn-Sham eigenvalues.

  Spin-up eigenvalues:

  State    Occupation    Eigenvalue [Ha]    Eigenvalue [eV]
      1       1.00000          -0.639836          -17.41083
      2       0.00000           0.042338            1.15206
      3       0.00000           0.066420            1.80737
      4       0.00000           0.169081            4.60093
      5       0.00000           0.198944            5.41353
      6       0.00000           0.198944            5.41353
      7       0.00000           0.317476            8.63897
      8       0.00000           0.650617           17.70419
      9       0.00000           0.650617           17.70419
     10       0.00000           0.652515           17.75583
     11       0.00000           0.728896           19.83428

  Spin-down eigenvalues:

  State    Occupation    Eigenvalue [Ha]    Eigenvalue [eV]
      1       1.00000          -0.466363          -12.69038
      2       0.00000           0.068286            1.85816
      3       0.00000           0.074336            2.02280
      4       0.00000           0.214493            5.83666
      5       0.00000           0.303319            8.25374
      6       0.00000           0.303319            8.25374
      7       0.00000           0.357632            9.73166
      8       0.00000           0.716094           19.48590
      9       0.00000           0.716094           19.48590
     10       0.00000           0.733121           19.94923
     11       0.00000           0.803310           21.85918

  Current spin moment of the entire structure :
  | N = N_up - N_down :    0.00
  | S                 :    0.00
  | J                 :    1.00

  Highest occupied state (VBM) at    -12.69038149 eV
  | Occupation number:      1.00000000
  | Spin channel:        2

  Lowest unoccupied state (CBM) at     1.15206331 eV
  | Occupation number:      0.00000000
  | Spin channel:        1

  Overall HOMO-LUMO gap:     13.84244480 eV.

  Total energy components:
  | Sum of eigenvalues            :          -1.10619921 Ha         -30.10121197 eV
  | XC energy correction          :          -0.40424963 Ha         -11.00019198 eV
  | XC potential correction       :           0.51570508 Ha          14.03304913 eV
  | Free-atom electrostatic energy:           0.38021528 Ha          10.34618404 eV
  | Hartree energy correction     :           0.09106062 Ha           2.47788557 eV
  | van der Waals energy corr.    :           0.00000000 Ha           0.00000000 eV
  | Entropy correction            :           0.00000000 Ha           0.00000000 eV
  | ---------------------------
  | Total energy                  :          -0.52346786 Ha         -14.24428521 eV
  | Total energy, T -> 0          :          -0.52346786 Ha         -14.24428521 eV  <-- do not rely on this value for anything but (periodic) metals
  | Electronic free energy        :          -0.52346786 Ha         -14.24428521 eV

  Derived energy quantities:
  | Kinetic energy                :           0.86486053 Ha          23.53405246 eV
  | Electrostatic energy          :          -0.98407877 Ha         -26.77814570 eV
  | Energy correction for multipole
  | error in Hartree potential    :           0.00001073 Ha           0.00029207 eV
  | Sum of eigenvalues per atom                           :         -15.05060599 eV
  | Total energy (T->0) per atom                          :          -7.12214261 eV  <-- do not rely on this value for anything but (periodic) metals
  | Electronic free energy per atom                       :          -7.12214261 eV

  Self-consistency convergence accuracy:
  | Change of charge/spin density : 0.1462E+00 0.1462E+00
  | Change of sum of eigenvalues  : -.6503E+01 eV
  | Change of total energy        : -.6769E+01 eV

  End self-consistency iteration #     1       :  max(cpu_time)    wall_clock(cpu1)
  | Time for this iteration                    :        0.026 s           0.026 s
  | Charge density update                      :        0.007 s           0.007 s
  | Density mixing                             :        0.001 s           0.000 s
  | Hartree multipole update                   :        0.001 s           0.002 s
  | Hartree multipole summation                :        0.005 s           0.005 s
  | Integration                                :        0.009 s           0.009 s
  | Solution of K.-S. eqns.                    :        0.001 s           0.001 s
  | Total energy evaluation                    :        0.000 s           0.001 s
------------------------------------------------------------

------------------------------------------------------------
          Begin self-consistency iteration #    2

  Date     :  20220120, Time     :  153720.210
------------------------------------------------------------
  Evaluating new KS density.
  Integration grid: deviation in total charge (<rho> - N_e) =  -1.339391E-08
  | <rho_up-rho_dn> = N_up-N_dn =     -2.0000; <|rho_up-rho_dn|> =      2.0000
  Pulay mixing of updated and previous charge densities.

  Evaluating partitioned Hartree potential by multipole expansion.
  | Analytical far-field extrapolation by fixed multipoles:
  | Hartree multipole sum: apparent total charge =  -0.235846E-04
  Summing up the Hartree potential.
  Time summed over all CPUs for potential: real work        0.032 s, elapsed        0.033 s
  | RMS charge density error from multipole expansion :   0.854248E-03

  Integrating Hamiltonian matrix: batch-based integration.
  Time summed over all CPUs for integration: real work        0.064 s, elapsed        0.068 s

  Updating Kohn-Sham eigenvalues, eigenvectors, occupation numbers, and Fermi level.
  Solving generalized eigenproblem
  Solving real symmetric generalised eigenvalue problem by standard ScaLAPACK.
  Using Cholesky factor for transformation
  Using 1-stage real ELPA solver
  Solving real symmetric generalised eigenvalue problem by standard ScaLAPACK.
  Using Cholesky factor for transformation
  Using 1-stage real ELPA solver
  Determining occupation numbers for Kohn-Sham eigenstates.
  | Chemical potential (Fermi level) in eV                 : -.14055017E+02
  | Error in electron count due to remaining E_F inaccuracy: 0.00000000E+00
  | Maximum occupation number of highest empty state:  0.00E+00

  Current spin moment of the entire structure :
  | N = N_up - N_down :    0.00
  | S                 :    0.00
  | J                 :    1.00

  Highest occupied state (VBM) at    -16.97109455 eV
  | Occupation number:      1.00000000
  | Spin channel:        2

  Lowest unoccupied state (CBM) at     0.91687922 eV
  | Occupation number:      0.00000000
  | Spin channel:        1

  Overall HOMO-LUMO gap:     17.88797377 eV.

  Total energy components:
  | Sum of eigenvalues            :          -1.48010142 Ha         -40.27560888 eV
  | XC energy correction          :          -0.61728195 Ha         -16.79709655 eV
  | XC potential correction       :           0.79405943 Ha          21.60745633 eV
  | Free-atom electrostatic energy:           0.38021528 Ha          10.34618404 eV
  | Hartree energy correction     :           0.05189147 Ha           1.41203873 eV
  | van der Waals energy corr.    :           0.00000000 Ha           0.00000000 eV
  | Entropy correction            :           0.00000000 Ha           0.00000000 eV
  | ---------------------------
  | Total energy                  :          -0.87121720 Ha         -23.70702633 eV
  | Total energy, T -> 0          :          -0.87121720 Ha         -23.70702633 eV  <-- do not rely on this value for anything but (periodic) metals
  | Electronic free energy        :          -0.87121720 Ha         -23.70702633 eV

  Derived energy quantities:
  | Kinetic energy                :           0.78596504 Ha          21.38719691 eV
  | Electrostatic energy          :          -1.03990029 Ha         -28.29712668 eV
  | Energy correction for multipole
  | error in Hartree potential    :           0.00003539 Ha           0.00096305 eV
  | Sum of eigenvalues per atom                           :         -20.13780444 eV
  | Total energy (T->0) per atom                          :         -11.85351316 eV  <-- do not rely on this value for anything but (periodic) metals
  | Electronic free energy per atom                       :         -11.85351316 eV

  Self-consistency convergence accuracy:
  | Change of charge/spin density : 0.1762E+00 0.3616E+00
  | Change of sum of eigenvalues  : -.1017E+02 eV
  | Change of total energy        : -.9463E+01 eV

  End self-consistency iteration #     2       :  max(cpu_time)    wall_clock(cpu1)
  | Time for this iteration                    :        0.024 s           0.024 s
  | Charge density update                      :        0.006 s           0.006 s
  | Density mixing                             :        0.001 s           0.001 s
  | Hartree multipole update                   :        0.001 s           0.001 s
  | Hartree multipole summation                :        0.004 s           0.004 s
  | Integration                                :        0.009 s           0.009 s
  | Solution of K.-S. eqns.                    :        0.001 s           0.001 s
  | Total energy evaluation                    :        0.000 s           0.000 s
------------------------------------------------------------

------------------------------------------------------------
          Begin self-consistency iteration #    3

  Date     :  20220120, Time     :  153720.238
------------------------------------------------------------
  Evaluating new KS density.
  Integration grid: deviation in total charge (<rho> - N_e) =  -1.222914E-08
  | <rho_up-rho_dn> = N_up-N_dn =     -1.7391; <|rho_up-rho_dn|> =      1.7391
  Pulay mixing of updated and previous charge densities.

  Evaluating partitioned Hartree potential by multipole expansion.
  | Analytical far-field extrapolation by fixed multipoles:
  | Hartree multipole sum: apparent total charge =  -0.256267E-04
  Summing up the Hartree potential.
  Time summed over all CPUs for potential: real work        0.032 s, elapsed        0.033 s
  | RMS charge density error from multipole expansion :   0.471844E-03

  Integrating Hamiltonian matrix: batch-based integration.
  Time summed over all CPUs for integration: real work        0.063 s, elapsed        0.066 s

  Updating Kohn-Sham eigenvalues, eigenvectors, occupation numbers, and Fermi level.
  Solving generalized eigenproblem
  Solving real symmetric generalised eigenvalue problem by standard ScaLAPACK.
  Using Cholesky factor for transformation
  Using 1-stage real ELPA solver
  Solving real symmetric generalised eigenvalue problem by standard ScaLAPACK.
  Using Cholesky factor for transformation
  Using 1-stage real ELPA solver
  Determining occupation numbers for Kohn-Sham eigenstates.
  | Chemical potential (Fermi level) in eV                 : -.10249791E+02
  | Error in electron count due to remaining E_F inaccuracy: 0.00000000E+00
  | Maximum occupation number of highest empty state:  0.00E+00

  Current spin moment of the entire structure :
  | N = N_up - N_down :    0.00
  | S                 :    0.00
  | J                 :    1.00

  Highest occupied state (VBM) at    -13.98260607 eV
  | Occupation number:      1.00000000
  | Spin channel:        2

  Lowest unoccupied state (CBM) at     0.79120527 eV
  | Occupation number:      0.00000000
  | Spin channel:        1

  Overall HOMO-LUMO gap:     14.77381134 eV.

  Total energy components:
  | Sum of eigenvalues            :          -1.19332675 Ha         -32.47207303 eV
  | XC energy correction          :          -0.43464452 Ha         -11.82727918 eV
  | XC potential correction       :           0.55587855 Ha          15.12622483 eV
  | Free-atom electrostatic energy:           0.38021528 Ha          10.34618404 eV
  | Hartree energy correction     :           0.11265260 Ha           3.06543324 eV
  | van der Waals energy corr.    :           0.00000000 Ha           0.00000000 eV
  | Entropy correction            :           0.00000000 Ha           0.00000000 eV
  | ---------------------------
  | Total energy                  :          -0.57922485 Ha         -15.76151011 eV
  | Total energy, T -> 0          :          -0.57922485 Ha         -15.76151011 eV  <-- do not rely on this value for anything but (periodic) metals
  | Electronic free energy        :          -0.57922485 Ha         -15.76151011 eV

  Derived energy quantities:
  | Kinetic energy                :           0.73846460 Ha          20.09464426 eV
  | Electrostatic energy          :          -0.88304493 Ha         -24.02887519 eV
  | Energy correction for multipole
  | error in Hartree potential    :          -0.00000057 Ha          -0.00001538 eV
  | Sum of eigenvalues per atom                           :         -16.23603652 eV
  | Total energy (T->0) per atom                          :          -7.88075506 eV  <-- do not rely on this value for anything but (periodic) metals
  | Electronic free energy per atom                       :          -7.88075506 eV

  Self-consistency convergence accuracy:
  | Change of charge/spin density : 0.3226E+00 0.2918E+00
  | Change of sum of eigenvalues  : 0.7804E+01 eV
  | Change of total energy        : 0.7946E+01 eV

  End self-consistency iteration #     3       :  max(cpu_time)    wall_clock(cpu1)
  | Time for this iteration                    :        0.027 s           0.024 s
  | Charge density update                      :        0.009 s           0.006 s
  | Density mixing                             :        0.001 s           0.001 s
  | Hartree multipole update                   :        0.001 s           0.002 s
  | Hartree multipole summation                :        0.004 s           0.004 s
  | Integration                                :        0.008 s           0.008 s
  | Solution of K.-S. eqns.                    :        0.001 s           0.002 s
  | Total energy evaluation                    :        0.000 s           0.001 s
------------------------------------------------------------

------------------------------------------------------------
          Begin self-consistency iteration #    4

  Date     :  20220120, Time     :  153720.264
------------------------------------------------------------
  Evaluating new KS density.
  Integration grid: deviation in total charge (<rho> - N_e) =  -1.295321E-08
  | <rho_up-rho_dn> = N_up-N_dn =     -1.8724; <|rho_up-rho_dn|> =      1.8724
  Pulay mixing of updated and previous charge densities.

  Evaluating partitioned Hartree potential by multipole expansion.
  | Analytical far-field extrapolation by fixed multipoles:
  | Hartree multipole sum: apparent total charge =  -0.295223E-04
  Summing up the Hartree potential.
  Time summed over all CPUs for potential: real work        0.032 s, elapsed        0.033 s
  | RMS charge density error from multipole expansion :   0.506775E-02

  Integrating Hamiltonian matrix: batch-based integration.
  Time summed over all CPUs for integration: real work        0.064 s, elapsed        0.067 s

  Updating Kohn-Sham eigenvalues, eigenvectors, occupation numbers, and Fermi level.
  Solving generalized eigenproblem
  Solving real symmetric generalised eigenvalue problem by standard ScaLAPACK.
  Using Cholesky factor for transformation
  Using 1-stage real ELPA solver
  Solving real symmetric generalised eigenvalue problem by standard ScaLAPACK.
  Using Cholesky factor for transformation
  Using 1-stage real ELPA solver
  Determining occupation numbers for Kohn-Sham eigenstates.
  | Chemical potential (Fermi level) in eV                 : -.22467452E+02
  | Error in electron count due to remaining E_F inaccuracy: 0.00000000E+00
  | Maximum occupation number of highest empty state:  0.00E+00

  Current spin moment of the entire structure :
  | N = N_up - N_down :    0.00
  | S                 :    0.00
  | J                 :    1.00

  Highest occupied state (VBM) at    -23.87854735 eV
  | Occupation number:      1.00000000
  | Spin channel:        2

  Lowest unoccupied state (CBM) at    -0.88613052 eV
  | Occupation number:      0.00000000
  | Spin channel:        1

  Overall HOMO-LUMO gap:     22.99241683 eV.

  Total energy components:
  | Sum of eigenvalues            :          -1.81833486 Ha         -49.47940892 eV
  | XC energy correction          :          -0.53302005 Ha         -14.50421353 eV
  | XC potential correction       :           0.68455351 Ha          18.62764886 eV
  | Free-atom electrostatic energy:           0.38021528 Ha          10.34618404 eV
  | Hartree energy correction     :           0.29761360 Ha           8.09847803 eV
  | van der Waals energy corr.    :           0.00000000 Ha           0.00000000 eV
  | Entropy correction            :           0.00000000 Ha           0.00000000 eV
  | ---------------------------
  | Total energy                  :          -0.98897252 Ha         -26.91131151 eV
  | Total energy, T -> 0          :          -0.98897252 Ha         -26.91131151 eV  <-- do not rely on this value for anything but (periodic) metals
  | Electronic free energy        :          -0.98897252 Ha         -26.91131151 eV

  Derived energy quantities:
  | Kinetic energy                :          -1.44017929 Ha         -39.18927253 eV
  | Electrostatic energy          :           0.98422682 Ha          26.78217455 eV
  | Energy correction for multipole
  | error in Hartree potential    :          -0.00020682 Ha          -0.00562776 eV
  | Sum of eigenvalues per atom                           :         -24.73970446 eV
  | Total energy (T->0) per atom                          :         -13.45565576 eV  <-- do not rely on this value for anything but (periodic) metals
  | Electronic free energy per atom                       :         -13.45565576 eV

  Self-consistency convergence accuracy:
  | Change of charge/spin density : 0.2228E+00 0.3288E+00
  | Change of sum of eigenvalues  : -.1701E+02 eV
  | Change of total energy        : -.1115E+02 eV

  End self-consistency iteration #     4       :  max(cpu_time)    wall_clock(cpu1)
  | Time for this iteration                    :        0.024 s           0.024 s
  | Charge density update                      :        0.006 s           0.005 s
  | Density mixing                             :        0.001 s           0.001 s
  | Hartree multipole update                   :        0.001 s           0.002 s
  | Hartree multipole summation                :        0.005 s           0.005 s
  | Integration                                :        0.008 s           0.008 s
  | Solution of K.-S. eqns.                    :        0.001 s           0.002 s
  | Total energy evaluation                    :        0.000 s           0.001 s
------------------------------------------------------------

------------------------------------------------------------
          Begin self-consistency iteration #    5

  Date     :  20220120, Time     :  153720.290
------------------------------------------------------------
  Evaluating new KS density.
  Integration grid: deviation in total charge (<rho> - N_e) =  -1.137256E-08
  | <rho_up-rho_dn> = N_up-N_dn =     -1.3854; <|rho_up-rho_dn|> =      1.3854
  Pulay mixing of updated and previous charge densities.

  Evaluating partitioned Hartree potential by multipole expansion.
  | Analytical far-field extrapolation by fixed multipoles:
  | Hartree multipole sum: apparent total charge =   0.470994E-04
  Summing up the Hartree potential.
  Time summed over all CPUs for potential: real work        0.032 s, elapsed        0.033 s
  | RMS charge density error from multipole expansion :   0.372537E-01

  Integrating Hamiltonian matrix: batch-based integration.
  Time summed over all CPUs for integration: real work        0.058 s, elapsed        0.062 s

  Updating Kohn-Sham eigenvalues, eigenvectors, occupation numbers, and Fermi level.
  Solving generalized eigenproblem
  Solving real symmetric generalised eigenvalue problem by standard ScaLAPACK.
  Using Cholesky factor for transformation
  Using 1-stage real ELPA solver
  Solving real symmetric generalised eigenvalue problem by standard ScaLAPACK.
  Using Cholesky factor for transformation
  Using 1-stage real ELPA solver
  Determining occupation numbers for Kohn-Sham eigenstates.
  | Chemical potential (Fermi level) in eV                 : 0.27236768E+01
  | Error in electron count due to remaining E_F inaccuracy: 0.63500316E-11
  | Maximum occupation number of highest empty state:  0.00E+00

  Current spin moment of the entire structure :
  | N = N_up - N_down :    0.00
  | S                 :    0.00
  | J                 :    1.00

  Highest occupied state (VBM) at      2.13664197 eV
  | Occupation number:      1.00000000
  | Spin channel:        2
 * WARNING: The VBM is higher than the internal energy zero!

  Lowest unoccupied state (CBM) at     2.72847640 eV
  | Occupation number:      0.00000000
  | Spin channel:        1

  Overall HOMO-LUMO gap:      0.59183443 eV.

  Total energy components:
  | Sum of eigenvalues            :           0.15696848 Ha           4.27132967 eV
  | XC energy correction          :          -5.82993055 Ha        -158.64048177 eV
  | XC potential correction       :           7.57659359 Ha         206.16960125 eV
  | Free-atom electrostatic energy:           0.38021528 Ha          10.34618404 eV
  | Hartree energy correction     :         -15.23908622 Ha        -414.67663465 eV
  | van der Waals energy corr.    :           0.00000000 Ha           0.00000000 eV
  | Entropy correction            :          -0.00000000 Ha          -0.00000000 eV
  | ---------------------------
  | Total energy                  :         -12.95523943 Ha        -352.53000145 eV
  | Total energy, T -> 0          :         -12.95523943 Ha        -352.53000145 eV  <-- do not rely on this value for anything but (periodic) metals
  | Electronic free energy        :         -12.95523943 Ha        -352.53000145 eV

  Derived energy quantities:
  | Kinetic energy                :          -6.58632286 Ha        -179.22296381 eV
  | Electrostatic energy          :          -0.53898602 Ha         -14.66655587 eV
  | Energy correction for multipole
  | error in Hartree potential    :           0.00171559 Ha           0.04668363 eV
  | Sum of eigenvalues per atom                           :           2.13566483 eV
  | Total energy (T->0) per atom                          :        -176.26500072 eV  <-- do not rely on this value for anything but (periodic) metals
  | Electronic free energy per atom                       :        -176.26500072 eV

  Self-consistency convergence accuracy:
  | Change of charge/spin density : 0.9054E+00 0.1929E+00
  | Change of sum of eigenvalues  : 0.5375E+02 eV
  | Change of total energy        : -.3256E+03 eV

  End self-consistency iteration #     5       :  max(cpu_time)    wall_clock(cpu1)
  | Time for this iteration                    :        0.024 s           0.024 s
  | Charge density update                      :        0.006 s           0.006 s
  | Density mixing                             :        0.001 s           0.001 s
  | Hartree multipole update                   :        0.001 s           0.002 s
  | Hartree multipole summation                :        0.004 s           0.004 s
  | Integration                                :        0.008 s           0.008 s
  | Solution of K.-S. eqns.                    :        0.001 s           0.001 s
  | Total energy evaluation                    :        0.000 s           0.000 s
------------------------------------------------------------

------------------------------------------------------------
          Begin self-consistency iteration #    6

  Date     :  20220120, Time     :  153720.319
------------------------------------------------------------
  Evaluating new KS density.
  Integration grid: deviation in total charge (<rho> - N_e) =  -2.921539E-10
  | <rho_up-rho_dn> = N_up-N_dn =     -0.1831; <|rho_up-rho_dn|> =      2.0375
  Pulay mixing of updated and previous charge densities.

  Evaluating partitioned Hartree potential by multipole expansion.
  | Analytical far-field extrapolation by fixed multipoles:
  | Hartree multipole sum: apparent total charge =   0.876731E-05
  Summing up the Hartree potential.
  Time summed over all CPUs for potential: real work        0.032 s, elapsed        0.033 s
  | RMS charge density error from multipole expansion :   0.197193E-01

  Integrating Hamiltonian matrix: batch-based integration.
  Time summed over all CPUs for integration: real work        0.063 s, elapsed        0.067 s

  Updating Kohn-Sham eigenvalues, eigenvectors, occupation numbers, and Fermi level.
  Solving generalized eigenproblem
  Solving real symmetric generalised eigenvalue problem by standard ScaLAPACK.
  Using Cholesky factor for transformation
  Using 1-stage real ELPA solver
  Solving real symmetric generalised eigenvalue problem by standard ScaLAPACK.
  Using Cholesky factor for transformation
  Using 1-stage real ELPA solver
  Determining occupation numbers for Kohn-Sham eigenstates.
  | Chemical potential (Fermi level) in eV                 : 0.87841062E+00
  | Error in electron count due to remaining E_F inaccuracy: 0.00000000E+00
  | Maximum occupation number of highest empty state:  0.00E+00

  Current spin moment of the entire structure :
  | N = N_up - N_down :    0.00
  | S                 :    0.00
  | J                 :    1.00

  Highest occupied state (VBM) at      0.47574247 eV
  | Occupation number:      1.00000000
  | Spin channel:        1
 * WARNING: The VBM is higher than the internal energy zero!

  Lowest unoccupied state (CBM) at     1.30313150 eV
  | Occupation number:      0.00000000
  | Spin channel:        2

  Overall HOMO-LUMO gap:      0.82738903 eV.

  Total energy components:
  | Sum of eigenvalues            :           0.03408204 Ha           0.92741936 eV
  | XC energy correction          :          -2.84820621 Ha         -77.50363423 eV
  | XC potential correction       :           3.68417639 Ha         100.25154021 eV
  | Free-atom electrostatic energy:           0.38021528 Ha          10.34618404 eV
  | Hartree energy correction     :          -5.08409087 Ha        -138.34515148 eV
  | van der Waals energy corr.    :           0.00000000 Ha           0.00000000 eV
  | Entropy correction            :           0.00000000 Ha           0.00000000 eV
  | ---------------------------
  | Total energy                  :          -3.83382338 Ha        -104.32364210 eV
  | Total energy, T -> 0          :          -3.83382338 Ha        -104.32364210 eV  <-- do not rely on this value for anything but (periodic) metals
  | Electronic free energy        :          -3.83382338 Ha        -104.32364210 eV

  Derived energy quantities:
  | Kinetic energy                :           2.64652207 Ha          72.01552968 eV
  | Electrostatic energy          :          -3.63213924 Ha         -98.83553755 eV
  | Energy correction for multipole
  | error in Hartree potential    :           0.00099871 Ha           0.02717640 eV
  | Sum of eigenvalues per atom                           :           0.46370968 eV
  | Total energy (T->0) per atom                          :         -52.16182105 eV  <-- do not rely on this value for anything but (periodic) metals
  | Electronic free energy per atom                       :         -52.16182105 eV

  Self-consistency convergence accuracy:
  | Change of charge/spin density : 0.3883E+01 0.9443E+00
  | Change of sum of eigenvalues  : -.3344E+01 eV
  | Change of total energy        : 0.2482E+03 eV

  End self-consistency iteration #     6       :  max(cpu_time)    wall_clock(cpu1)
  | Time for this iteration                    :        0.027 s           0.024 s
  | Charge density update                      :        0.010 s           0.006 s
  | Density mixing                             :        0.001 s           0.001 s
  | Hartree multipole update                   :        0.001 s           0.002 s
  | Hartree multipole summation                :        0.004 s           0.004 s
  | Integration                                :        0.008 s           0.009 s
  | Solution of K.-S. eqns.                    :        0.001 s           0.001 s
  | Total energy evaluation                    :        0.000 s           0.001 s
------------------------------------------------------------

------------------------------------------------------------
          Begin self-consistency iteration #    7

  Date     :  20220120, Time     :  153720.345
------------------------------------------------------------
  Evaluating new KS density.
  Integration grid: deviation in total charge (<rho> - N_e) =  -7.505370E-10
  | <rho_up-rho_dn> = N_up-N_dn =      0.0889; <|rho_up-rho_dn|> =      1.0222
  Pulay mixing of updated and previous charge densities.

  Evaluating partitioned Hartree potential by multipole expansion.
  | Analytical far-field extrapolation by fixed multipoles:
  | Hartree multipole sum: apparent total charge =  -0.426913E-05
  Summing up the Hartree potential.
  Time summed over all CPUs for potential: real work        0.032 s, elapsed        0.033 s
  | RMS charge density error from multipole expansion :   0.173880E-01

  Integrating Hamiltonian matrix: batch-based integration.
  Time summed over all CPUs for integration: real work        0.063 s, elapsed        0.067 s

  Updating Kohn-Sham eigenvalues, eigenvectors, occupation numbers, and Fermi level.
  Solving generalized eigenproblem
  Solving real symmetric generalised eigenvalue problem by standard ScaLAPACK.
  Using Cholesky factor for transformation
  Using 1-stage real ELPA solver
  Solving real symmetric generalised eigenvalue problem by standard ScaLAPACK.
  Using Cholesky factor for transformation
  Using 1-stage real ELPA solver
  Determining occupation numbers for Kohn-Sham eigenstates.
  | Chemical potential (Fermi level) in eV                 : 0.99435341E+00
  | Error in electron count due to remaining E_F inaccuracy: 0.00000000E+00
  | Maximum occupation number of highest empty state:  0.00E+00

  Current spin moment of the entire structure :
  | N = N_up - N_down :    0.00
  | S                 :    0.00
  | J                 :    1.00

  Highest occupied state (VBM) at      0.20129301 eV
  | Occupation number:      1.00000000
  | Spin channel:        1
 * WARNING: The VBM is higher than the internal energy zero!

  Lowest unoccupied state (CBM) at     1.01091932 eV
  | Occupation number:      0.00000000
  | Spin channel:        2

  Overall HOMO-LUMO gap:      0.80962631 eV.

  Total energy components:
  | Sum of eigenvalues            :           0.00863193 Ha           0.23488675 eV
  | XC energy correction          :          -2.49029391 Ha         -67.76434522 eV
  | XC potential correction       :           3.21833101 Ha          87.57524249 eV
  | Free-atom electrostatic energy:           0.38021528 Ha          10.34618404 eV
  | Hartree energy correction     :          -4.08130454 Ha        -111.05794717 eV
  | van der Waals energy corr.    :           0.00000000 Ha           0.00000000 eV
  | Entropy correction            :          -0.00000000 Ha          -0.00000000 eV
  | ---------------------------
  | Total energy                  :          -2.96442025 Ha         -80.66597911 eV
  | Total energy, T -> 0          :          -2.96442025 Ha         -80.66597911 eV  <-- do not rely on this value for anything but (periodic) metals
  | Electronic free energy        :          -2.96442025 Ha         -80.66597911 eV

  Derived energy quantities:
  | Kinetic energy                :           3.18097025 Ha          86.55860464 eV
  | Electrostatic energy          :          -3.65509658 Ha         -99.46023853 eV
  | Energy correction for multipole
  | error in Hartree potential    :           0.00088904 Ha           0.02419196 eV
  | Sum of eigenvalues per atom                           :           0.11744338 eV
  | Total energy (T->0) per atom                          :         -40.33298956 eV  <-- do not rely on this value for anything but (periodic) metals
  | Electronic free energy per atom                       :         -40.33298956 eV

  Self-consistency convergence accuracy:
  | Change of charge/spin density : 0.2161E+01 0.4416E+00
  | Change of sum of eigenvalues  : -.6925E+00 eV
  | Change of total energy        : 0.2366E+02 eV

  End self-consistency iteration #     7       :  max(cpu_time)    wall_clock(cpu1)
  | Time for this iteration                    :        0.025 s           0.024 s
  | Charge density update                      :        0.006 s           0.005 s
  | Density mixing                             :        0.002 s           0.002 s
  | Hartree multipole update                   :        0.001 s           0.001 s
  | Hartree multipole summation                :        0.004 s           0.005 s
  | Integration                                :        0.008 s           0.008 s
  | Solution of K.-S. eqns.                    :        0.001 s           0.002 s
  | Total energy evaluation                    :        0.000 s           0.001 s
------------------------------------------------------------

------------------------------------------------------------
          Begin self-consistency iteration #    8

  Date     :  20220120, Time     :  153720.371
------------------------------------------------------------
  Evaluating new KS density.
  Integration grid: deviation in total charge (<rho> - N_e) =   6.157443E-10
  | <rho_up-rho_dn> = N_up-N_dn =      0.3781; <|rho_up-rho_dn|> =      1.0429
  Pulay mixing of updated and previous charge densities.

  Evaluating partitioned Hartree potential by multipole expansion.
  | Analytical far-field extrapolation by fixed multipoles:
  | Hartree multipole sum: apparent total charge =  -0.360991E-04
  Summing up the Hartree potential.
  Time summed over all CPUs for potential: real work        0.032 s, elapsed        0.033 s
  | RMS charge density error from multipole expansion :   0.287215E-02

  Integrating Hamiltonian matrix: batch-based integration.
  Time summed over all CPUs for integration: real work        0.070 s, elapsed        0.074 s

  Updating Kohn-Sham eigenvalues, eigenvectors, occupation numbers, and Fermi level.
  Solving generalized eigenproblem
  Solving real symmetric generalised eigenvalue problem by standard ScaLAPACK.
  Using Cholesky factor for transformation
  Using 1-stage real ELPA solver
  Solving real symmetric generalised eigenvalue problem by standard ScaLAPACK.
  Using Cholesky factor for transformation
  Using 1-stage real ELPA solver
  Determining occupation numbers for Kohn-Sham eigenstates.
  | Chemical potential (Fermi level) in eV                 : -.15581182E+02
  | Error in electron count due to remaining E_F inaccuracy: 0.00000000E+00
  | Maximum occupation number of highest empty state:  0.00E+00

  Current spin moment of the entire structure :
  | N = N_up - N_down :    0.00
  | S                 :    0.00
  | J                 :    1.00

  Highest occupied state (VBM) at    -17.91414755 eV
  | Occupation number:      1.00000000
  | Spin channel:        2

  Lowest unoccupied state (CBM) at    -0.75289857 eV
  | Occupation number:      0.00000000
  | Spin channel:        2

  Overall HOMO-LUMO gap:     17.16124898 eV.

  Total energy components:
  | Sum of eigenvalues            :          -1.33201939 Ha         -36.24609172 eV
  | XC energy correction          :          -0.71743528 Ha         -19.52240720 eV
  | XC potential correction       :           0.91786570 Ha          24.97639660 eV
  | Free-atom electrostatic energy:           0.38021528 Ha          10.34618404 eV
  | Hartree energy correction     :          -0.13529469 Ha          -3.68155576 eV
  | van der Waals energy corr.    :           0.00000000 Ha           0.00000000 eV
  | Entropy correction            :           0.00000000 Ha           0.00000000 eV
  | ---------------------------
  | Total energy                  :          -0.88666837 Ha         -24.12747404 eV
  | Total energy, T -> 0          :          -0.88666837 Ha         -24.12747404 eV  <-- do not rely on this value for anything but (periodic) metals
  | Electronic free energy        :          -0.88666837 Ha         -24.12747404 eV

  Derived energy quantities:
  | Kinetic energy                :           1.43366696 Ha          39.01206299 eV
  | Electrostatic energy          :          -1.60290006 Ha         -43.61712982 eV
  | Energy correction for multipole
  | error in Hartree potential    :           0.00015048 Ha           0.00409475 eV
  | Sum of eigenvalues per atom                           :         -18.12304586 eV
  | Total energy (T->0) per atom                          :         -12.06373702 eV  <-- do not rely on this value for anything but (periodic) metals
  | Electronic free energy per atom                       :         -12.06373702 eV

  Self-consistency convergence accuracy:
  | Change of charge/spin density : 0.1930E+01 0.3579E+00
  | Change of sum of eigenvalues  : -.3648E+02 eV
  | Change of total energy        : 0.5654E+02 eV

  End self-consistency iteration #     8       :  max(cpu_time)    wall_clock(cpu1)
  | Time for this iteration                    :        0.026 s           0.025 s
  | Charge density update                      :        0.006 s           0.005 s
  | Density mixing                             :        0.002 s           0.002 s
  | Hartree multipole update                   :        0.001 s           0.002 s
  | Hartree multipole summation                :        0.004 s           0.004 s
  | Integration                                :        0.009 s           0.009 s
  | Solution of K.-S. eqns.                    :        0.001 s           0.002 s
  | Total energy evaluation                    :        0.000 s           0.001 s
------------------------------------------------------------

------------------------------------------------------------
          Begin self-consistency iteration #    9

  Date     :  20220120, Time     :  153720.400
------------------------------------------------------------
  Evaluating new KS density.
  Integration grid: deviation in total charge (<rho> - N_e) =  -1.797105E-09
  | <rho_up-rho_dn> = N_up-N_dn =     -0.0059; <|rho_up-rho_dn|> =      0.1259
  Pulay mixing of updated and previous charge densities.

  Evaluating partitioned Hartree potential by multipole expansion.
  | Analytical far-field extrapolation by fixed multipoles:
  | Hartree multipole sum: apparent total charge =  -0.403463E-04
  Summing up the Hartree potential.
  Time summed over all CPUs for potential: real work        0.032 s, elapsed        0.033 s
  | RMS charge density error from multipole expansion :   0.205028E-02

  Integrating Hamiltonian matrix: batch-based integration.
  Time summed over all CPUs for integration: real work        0.070 s, elapsed        0.074 s

  Updating Kohn-Sham eigenvalues, eigenvectors, occupation numbers, and Fermi level.
  Solving generalized eigenproblem
  Solving real symmetric generalised eigenvalue problem by standard ScaLAPACK.
  Using Cholesky factor for transformation
  Using 1-stage real ELPA solver
  Solving real symmetric generalised eigenvalue problem by standard ScaLAPACK.
  Using Cholesky factor for transformation
  Using 1-stage real ELPA solver
  Determining occupation numbers for Kohn-Sham eigenstates.
  | Chemical potential (Fermi level) in eV                 : -.16842077E+02
  | Error in electron count due to remaining E_F inaccuracy: 0.00000000E+00
  | Maximum occupation number of highest empty state:  0.00E+00

  Current spin moment of the entire structure :
  | N = N_up - N_down :    0.00
  | S                 :    0.00
  | J                 :    1.00

  Highest occupied state (VBM) at    -19.31926804 eV
  | Occupation number:      1.00000000
  | Spin channel:        2

  Lowest unoccupied state (CBM) at    -0.79315610 eV
  | Occupation number:      0.00000000
  | Spin channel:        1

  Overall HOMO-LUMO gap:     18.52611194 eV.

  Total energy components:
  | Sum of eigenvalues            :          -1.43327228 Ha         -39.00132317 eV
  | XC energy correction          :          -0.65975838 Ha         -17.95293898 eV
  | XC potential correction       :           0.84395417 Ha          22.96516137 eV
  | Free-atom electrostatic energy:           0.38021528 Ha          10.34618404 eV
  | Hartree energy correction     :          -0.04344130 Ha          -1.18209785 eV
  | van der Waals energy corr.    :           0.00000000 Ha           0.00000000 eV
  | Entropy correction            :           0.00000000 Ha           0.00000000 eV
  | ---------------------------
  | Total energy                  :          -0.91230252 Ha         -24.82501458 eV
  | Total energy, T -> 0          :          -0.91230252 Ha         -24.82501458 eV  <-- do not rely on this value for anything but (periodic) metals
  | Electronic free energy        :          -0.91230252 Ha         -24.82501458 eV

  Derived energy quantities:
  | Kinetic energy                :           1.12316626 Ha          30.56290888 eV
  | Electrostatic energy          :          -1.37571039 Ha         -37.43498449 eV
  | Energy correction for multipole
  | error in Hartree potential    :           0.00012362 Ha           0.00336396 eV
  | Sum of eigenvalues per atom                           :         -19.50066159 eV
  | Total energy (T->0) per atom                          :         -12.41250729 eV  <-- do not rely on this value for anything but (periodic) metals
  | Electronic free energy per atom                       :         -12.41250729 eV

  Self-consistency convergence accuracy:
  | Change of charge/spin density : 0.1206E+00 0.6349E-01
  | Change of sum of eigenvalues  : -.2755E+01 eV
  | Change of total energy        : -.6975E+00 eV

  End self-consistency iteration #     9       :  max(cpu_time)    wall_clock(cpu1)
  | Time for this iteration                    :        0.025 s           0.025 s
  | Charge density update                      :        0.006 s           0.006 s
  | Density mixing                             :        0.002 s           0.001 s
  | Hartree multipole update                   :        0.001 s           0.002 s
  | Hartree multipole summation                :        0.004 s           0.004 s
  | Integration                                :        0.009 s           0.009 s
  | Solution of K.-S. eqns.                    :        0.001 s           0.002 s
  | Total energy evaluation                    :        0.000 s           0.001 s
------------------------------------------------------------

------------------------------------------------------------
          Begin self-consistency iteration #   10

  Date     :  20220120, Time     :  153720.430
------------------------------------------------------------
  Evaluating new KS density.
  Integration grid: deviation in total charge (<rho> - N_e) =  -1.607828E-09
  | <rho_up-rho_dn> = N_up-N_dn =     -0.0420; <|rho_up-rho_dn|> =      0.0632
  Pulay mixing of updated and previous charge densities.

  Evaluating partitioned Hartree potential by multipole expansion.
  | Analytical far-field extrapolation by fixed multipoles:
  | Hartree multipole sum: apparent total charge =  -0.472642E-04
  Summing up the Hartree potential.
  Time summed over all CPUs for potential: real work        0.032 s, elapsed        0.033 s
  | RMS charge density error from multipole expansion :   0.149758E-02

  Integrating Hamiltonian matrix: batch-based integration.
  Time summed over all CPUs for integration: real work        0.071 s, elapsed        0.074 s

  Updating Kohn-Sham eigenvalues, eigenvectors, occupation numbers, and Fermi level.
  Solving generalized eigenproblem
  Solving real symmetric generalised eigenvalue problem by standard ScaLAPACK.
  Using Cholesky factor for transformation
  Using 1-stage real ELPA solver
  Solving real symmetric generalised eigenvalue problem by standard ScaLAPACK.
  Using Cholesky factor for transformation
  Using 1-stage real ELPA solver
  Determining occupation numbers for Kohn-Sham eigenstates.
  | Chemical potential (Fermi level) in eV                 : -.17398281E+02
  | Error in electron count due to remaining E_F inaccuracy: 0.00000000E+00
  | Maximum occupation number of highest empty state:  0.00E+00

  Current spin moment of the entire structure :
  | N = N_up - N_down :    0.00
  | S                 :    0.00
  | J                 :    1.00

  Highest occupied state (VBM) at    -20.14851161 eV
  | Occupation number:      1.00000000
  | Spin channel:        1

  Lowest unoccupied state (CBM) at    -0.78193378 eV
  | Occupation number:      0.00000000
  | Spin channel:        2

  Overall HOMO-LUMO gap:     19.36657784 eV.

  Total energy components:
  | Sum of eigenvalues            :          -1.48482103 Ha         -40.40403597 eV
  | XC energy correction          :          -0.62922610 Ha         -17.12211345 eV
  | XC potential correction       :           0.80586870 Ha          21.92880317 eV
  | Free-atom electrostatic energy:           0.38021528 Ha          10.34618404 eV
  | Hartree energy correction     :          -0.00024133 Ha          -0.00656686 eV
  | van der Waals energy corr.    :           0.00000000 Ha           0.00000000 eV
  | Entropy correction            :           0.00000000 Ha           0.00000000 eV
  | ---------------------------
  | Total energy                  :          -0.92820448 Ha         -25.25772906 eV
  | Total energy, T -> 0          :          -0.92820448 Ha         -25.25772906 eV  <-- do not rely on this value for anything but (periodic) metals
  | Electronic free energy        :          -0.92820448 Ha         -25.25772906 eV

  Derived energy quantities:
  | Kinetic energy                :           0.90657845 Ha          24.66925466 eV
  | Electrostatic energy          :          -1.20555682 Ha         -32.80487028 eV
  | Energy correction for multipole
  | error in Hartree potential    :           0.00012517 Ha           0.00340602 eV
  | Sum of eigenvalues per atom                           :         -20.20201799 eV
  | Total energy (T->0) per atom                          :         -12.62886453 eV  <-- do not rely on this value for anything but (periodic) metals
  | Electronic free energy per atom                       :         -12.62886453 eV

  Self-consistency convergence accuracy:
  | Change of charge/spin density : 0.2042E+00 0.3481E-01
  | Change of sum of eigenvalues  : -.1403E+01 eV
  | Change of total energy        : -.4327E+00 eV

  End self-consistency iteration #    10       :  max(cpu_time)    wall_clock(cpu1)
  | Time for this iteration                    :        0.025 s           0.025 s
  | Charge density update                      :        0.006 s           0.006 s
  | Density mixing                             :        0.002 s           0.001 s
  | Hartree multipole update                   :        0.001 s           0.002 s
  | Hartree multipole summation                :        0.004 s           0.004 s
  | Integration                                :        0.009 s           0.009 s
  | Solution of K.-S. eqns.                    :        0.001 s           0.001 s
  | Total energy evaluation                    :        0.000 s           0.001 s
------------------------------------------------------------

------------------------------------------------------------
          Begin self-consistency iteration #   11

  Date     :  20220120, Time     :  153720.460
------------------------------------------------------------
  Evaluating new KS density.
  Integration grid: deviation in total charge (<rho> - N_e) =  -5.626011E-10
  | <rho_up-rho_dn> = N_up-N_dn =     -0.0034; <|rho_up-rho_dn|> =      0.0369
  Pulay mixing of updated and previous charge densities.

  Evaluating partitioned Hartree potential by multipole expansion.
  | Analytical far-field extrapolation by fixed multipoles:
  | Hartree multipole sum: apparent total charge =  -0.420394E-04
  Summing up the Hartree potential.
  Time summed over all CPUs for potential: real work        0.032 s, elapsed        0.033 s
  | RMS charge density error from multipole expansion :   0.322352E-02

  Integrating Hamiltonian matrix: batch-based integration.
  Time summed over all CPUs for integration: real work        0.070 s, elapsed        0.074 s

  Updating Kohn-Sham eigenvalues, eigenvectors, occupation numbers, and Fermi level.
  Solving generalized eigenproblem
  Solving real symmetric generalised eigenvalue problem by standard ScaLAPACK.
  Using Cholesky factor for transformation
  Using 1-stage real ELPA solver
  Solving real symmetric generalised eigenvalue problem by standard ScaLAPACK.
  Using Cholesky factor for transformation
  Using 1-stage real ELPA solver
  Determining occupation numbers for Kohn-Sham eigenstates.
  | Chemical potential (Fermi level) in eV                 : -.13707543E+02
  | Error in electron count due to remaining E_F inaccuracy: 0.00000000E+00
  | Maximum occupation number of highest empty state:  0.00E+00

  Current spin moment of the entire structure :
  | N = N_up - N_down :    0.00
  | S                 :    0.00
  | J                 :    1.00

  Highest occupied state (VBM) at    -16.33099444 eV
  | Occupation number:      1.00000000
  | Spin channel:        1

  Lowest unoccupied state (CBM) at    -0.40559899 eV
  | Occupation number:      0.00000000
  | Spin channel:        1

  Overall HOMO-LUMO gap:     15.92539545 eV.

  Total energy components:
  | Sum of eigenvalues            :          -1.20172289 Ha         -32.70054369 eV
  | XC energy correction          :          -0.76908018 Ha         -20.92773652 eV
  | XC potential correction       :           0.98508678 Ha          26.80557525 eV
  | Free-atom electrostatic energy:           0.38021528 Ha          10.34618404 eV
  | Hartree energy correction     :          -0.26346356 Ha          -7.16920836 eV
  | van der Waals energy corr.    :           0.00000000 Ha           0.00000000 eV
  | Entropy correction            :           0.00000000 Ha           0.00000000 eV
  | ---------------------------
  | Total energy                  :          -0.86896458 Ha         -23.64572928 eV
  | Total energy, T -> 0          :          -0.86896458 Ha         -23.64572928 eV  <-- do not rely on this value for anything but (periodic) metals
  | Electronic free energy        :          -0.86896458 Ha         -23.64572928 eV

  Derived energy quantities:
  | Kinetic energy                :           1.59040283 Ha          43.27706284 eV
  | Electrostatic energy          :          -1.69028723 Ha         -45.99505560 eV
  | Energy correction for multipole
  | error in Hartree potential    :           0.00023715 Ha           0.00645325 eV
  | Sum of eigenvalues per atom                           :         -16.35027184 eV
[...]
  | Change of sum of eigenvalues  : 0.2960E-03 eV
  | Change of total energy        : -.7037E-08 eV

  End self-consistency iteration #    22       :  max(cpu_time)    wall_clock(cpu1)
  | Time for this iteration                    :        0.026 s           0.025 s
  | Charge density update                      :        0.006 s           0.006 s
  | Density mixing                             :        0.002 s           0.001 s
  | Hartree multipole update                   :        0.001 s           0.002 s
  | Hartree multipole summation                :        0.004 s           0.004 s
  | Integration                                :        0.009 s           0.010 s
  | Solution of K.-S. eqns.                    :        0.001 s           0.001 s
  | Total energy evaluation                    :        0.000 s           0.001 s
------------------------------------------------------------

------------------------------------------------------------
          Begin self-consistency iteration #   23

  Date     :  20220120, Time     :  153720.819
------------------------------------------------------------
  Evaluating new KS density.
  Integration grid: deviation in total charge (<rho> - N_e) =  -1.842970E-13
  | <rho_up-rho_dn> = N_up-N_dn =      0.0000; <|rho_up-rho_dn|> =      0.0000
  Pulay mixing of updated and previous charge densities.

  Evaluating partitioned Hartree potential by multipole expansion.
  | Analytical far-field extrapolation by fixed multipoles:
  | Hartree multipole sum: apparent total charge =   0.338703E-05
  Summing up the Hartree potential.
  Time summed over all CPUs for potential: real work        0.032 s, elapsed        0.033 s
  | RMS charge density error from multipole expansion :   0.354405E-02

  Integrating Hamiltonian matrix: batch-based integration.
  Time summed over all CPUs for integration: real work        0.072 s, elapsed        0.076 s

  Updating Kohn-Sham eigenvalues, eigenvectors, occupation numbers, and Fermi level.
  Solving generalized eigenproblem
  Solving real symmetric generalised eigenvalue problem by standard ScaLAPACK.
  Using Cholesky factor for transformation
  Using 1-stage real ELPA solver
  Solving real symmetric generalised eigenvalue problem by standard ScaLAPACK.
  Using Cholesky factor for transformation
  Using 1-stage real ELPA solver
  Determining occupation numbers for Kohn-Sham eigenstates.
  | Chemical potential (Fermi level) in eV                 : -.11155173E+02
  | Error in electron count due to remaining E_F inaccuracy: 0.00000000E+00
  | Maximum occupation number of highest empty state:  0.00E+00

  Current spin moment of the entire structure :
  | N = N_up - N_down :    0.00
  | S                 :    0.00
  | J                 :    1.00

  Highest occupied state (VBM) at    -12.92777007 eV
  | Occupation number:      1.00000000
  | Spin channel:        2

  Lowest unoccupied state (CBM) at     1.23813349 eV
  | Occupation number:      0.00000000
  | Spin channel:        1

  Overall HOMO-LUMO gap:     14.16590356 eV.

  Total energy components:
  | Sum of eigenvalues            :          -0.95017364 Ha         -25.85554024 eV
  | XC energy correction          :          -0.85898379 Ha         -23.37413819 eV
  | XC potential correction       :           1.10182554 Ha          29.98219831 eV
  | Free-atom electrostatic energy:           0.38021528 Ha          10.34618404 eV
  | Hartree energy correction     :          -0.53070435 Ha         -14.44120014 eV
  | van der Waals energy corr.    :           0.00000000 Ha           0.00000000 eV
  | Entropy correction            :           0.00000000 Ha           0.00000000 eV
  | ---------------------------
  | Total energy                  :          -0.85782097 Ha         -23.34249621 eV
  | Total energy, T -> 0          :          -0.85782097 Ha         -23.34249621 eV  <-- do not rely on this value for anything but (periodic) metals
  | Electronic free energy        :          -0.85782097 Ha         -23.34249621 eV

  Derived energy quantities:
  | Kinetic energy                :           1.76472992 Ha          48.02074426 eV
  | Electrostatic energy          :          -1.76356709 Ha         -47.98910229 eV
  | Energy correction for multipole
  | error in Hartree potential    :           0.00031540 Ha           0.00858244 eV
  | Sum of eigenvalues per atom                           :         -12.92777012 eV
  | Total energy (T->0) per atom                          :         -11.67124811 eV  <-- do not rely on this value for anything but (periodic) metals
  | Electronic free energy per atom                       :         -11.67124811 eV

  Self-consistency convergence accuracy:
  | Change of charge/spin density : 0.1956E-05 0.5239E-06
  | Change of sum of eigenvalues  : -.1214E-03 eV
  | Change of total energy        : -.2060E-08 eV

  End self-consistency iteration #    23       :  max(cpu_time)    wall_clock(cpu1)
  | Time for this iteration                    :        0.026 s           0.026 s
  | Charge density update                      :        0.006 s           0.006 s
  | Density mixing                             :        0.002 s           0.002 s
  | Hartree multipole update                   :        0.001 s           0.001 s
  | Hartree multipole summation                :        0.004 s           0.004 s
  | Integration                                :        0.010 s           0.010 s
  | Solution of K.-S. eqns.                    :        0.001 s           0.002 s
  | Total energy evaluation                    :        0.000 s           0.001 s
------------------------------------------------------------

------------------------------------------------------------
          Begin self-consistency iteration #   24

  Date     :  20220120, Time     :  153720.851
------------------------------------------------------------
  Evaluating new KS density.
  Integration grid: deviation in total charge (<rho> - N_e) =  -3.730349E-14
  | <rho_up-rho_dn> = N_up-N_dn =      0.0000; <|rho_up-rho_dn|> =      0.0000
  Pulay mixing of updated and previous charge densities.

  Evaluating partitioned Hartree potential by multipole expansion.
  | Analytical far-field extrapolation by fixed multipoles:
  | Hartree multipole sum: apparent total charge =   0.338681E-05
  Summing up the Hartree potential.
  Time summed over all CPUs for potential: real work        0.033 s, elapsed        0.039 s
  | RMS charge density error from multipole expansion :   0.354405E-02

  Integrating Hamiltonian matrix: batch-based integration.
  Time summed over all CPUs for integration: real work        0.073 s, elapsed        0.086 s

  Updating Kohn-Sham eigenvalues, eigenvectors, occupation numbers, and Fermi level.
  Solving generalized eigenproblem
  Solving real symmetric generalised eigenvalue problem by standard ScaLAPACK.
  Using Cholesky factor for transformation
  Using 1-stage real ELPA solver
  Solving real symmetric generalised eigenvalue problem by standard ScaLAPACK.
  Using Cholesky factor for transformation
  Using 1-stage real ELPA solver
  Determining occupation numbers for Kohn-Sham eigenstates.
  | Chemical potential (Fermi level) in eV                 : -.11155155E+02
  | Error in electron count due to remaining E_F inaccuracy: 0.00000000E+00
  | Maximum occupation number of highest empty state:  0.00E+00

  Current spin moment of the entire structure :
  | N = N_up - N_down :    0.00
  | S                 :    0.00
  | J                 :    1.00

  Highest occupied state (VBM) at    -12.92777235 eV
  | Occupation number:      1.00000000
  | Spin channel:        1

  Lowest unoccupied state (CBM) at     1.23718956 eV
  | Occupation number:      0.00000000
  | Spin channel:        1

  Overall HOMO-LUMO gap:     14.16496191 eV.

  Total energy components:
  | Sum of eigenvalues            :          -0.95017381 Ha         -25.85554479 eV
  | XC energy correction          :          -0.85898372 Ha         -23.37413634 eV
  | XC potential correction       :           1.10182545 Ha          29.98219600 eV
  | Free-atom electrostatic energy:           0.38021528 Ha          10.34618404 eV
  | Hartree energy correction     :          -0.53070417 Ha         -14.44119513 eV
  | van der Waals energy corr.    :           0.00000000 Ha           0.00000000 eV
  | Entropy correction            :           0.00000000 Ha           0.00000000 eV
  | ---------------------------
  | Total energy                  :          -0.85782097 Ha         -23.34249622 eV
  | Total energy, T -> 0          :          -0.85782097 Ha         -23.34249622 eV  <-- do not rely on this value for anything but (periodic) metals
  | Electronic free energy        :          -0.85782097 Ha         -23.34249622 eV

  Derived energy quantities:
  | Kinetic energy                :           1.76472982 Ha          48.02074173 eV
  | Electrostatic energy          :          -1.76356707 Ha         -47.98910160 eV
  | Energy correction for multipole
  | error in Hartree potential    :           0.00031540 Ha           0.00858244 eV
  | Sum of eigenvalues per atom                           :         -12.92777239 eV
  | Total energy (T->0) per atom                          :         -11.67124811 eV  <-- do not rely on this value for anything but (periodic) metals
  | Electronic free energy per atom                       :         -11.67124811 eV

  Self-consistency convergence accuracy:
  | Change of charge/spin density : 0.8733E-07 0.2437E-07
  | Change of sum of eigenvalues  : -.4548E-05 eV
  | Change of total energy        : -.7794E-09 eV

  Writing Kohn-Sham eigenvalues.

  Spin-up eigenvalues:

  State    Occupation    Eigenvalue [Ha]    Eigenvalue [eV]
      1       1.00000          -0.475087          -12.92777
      2       0.00000           0.045466            1.23719
      3       0.00000           0.054515            1.48342
      4       0.00000           0.230239            6.26513
      5       0.00000           0.342734            9.32628
      6       0.00000           0.362918            9.87550
      7       0.00000           0.362918            9.87550
      8       0.00000           0.743885           20.24213
      9       0.00000           0.743885           20.24213
     10       0.00000           0.774726           21.08137
     11       0.00000           0.827746           22.52411

  Spin-down eigenvalues:

  State    Occupation    Eigenvalue [Ha]    Eigenvalue [eV]
      1       1.00000          -0.475087          -12.92777
      2       0.00000           0.045468            1.23724
      3       0.00000           0.054516            1.48346
      4       0.00000           0.230241            6.26517
      5       0.00000           0.342736            9.32633
      6       0.00000           0.362918            9.87551
      7       0.00000           0.362918            9.87551
      8       0.00000           0.743885           20.24213
      9       0.00000           0.743885           20.24213
     10       0.00000           0.774726           21.08137
     11       0.00000           0.827746           22.52411

  Current spin moment of the entire structure :
  | N = N_up - N_down :    0.00
  | S                 :    0.00
  | J                 :    1.00

  Highest occupied state (VBM) at    -12.92777235 eV
  | Occupation number:      1.00000000
  | Spin channel:        1

  Lowest unoccupied state (CBM) at     1.23718956 eV
  | Occupation number:      0.00000000
  | Spin channel:        1

  Overall HOMO-LUMO gap:     14.16496191 eV.

  Self-consistency cycle converged.

  End self-consistency iteration #    24       :  max(cpu_time)    wall_clock(cpu1)
  | Time for this iteration                    :        0.030 s           0.029 s
  | Charge density update                      :        0.007 s           0.006 s
  | Density mixing                             :        0.002 s           0.002 s
  | Hartree multipole update                   :        0.001 s           0.001 s
  | Hartree multipole summation                :        0.005 s           0.005 s
  | Integration                                :        0.011 s           0.011 s
  | Solution of K.-S. eqns.                    :        0.002 s           0.002 s
  | Total energy evaluation                    :        0.000 s           0.001 s
------------------------------------------------------------
  Obtaining max. number of non-zero basis functions in each batch .
  Evaluating KS electron density on previously omitted grid points.
  Evaluating non-empirical van der Waals correction (Tkatchenko/Scheffler 2009).
  Performing Hirshfeld analysis of fragment charges and moments.
  ----------------------------------------------------------------------
  | Atom     1: H
  |   Hirshfeld charge        :     -0.00000003
  |   Free atom volume        :     10.31539447
  |   Hirshfeld volume        :      3.40051595
  |   Hirshfeld spin moment   :      0.00000001
  |   Hirshfeld dipole vector :     -0.00000000      -0.00000000      -0.05190635
  |   Hirshfeld dipole moment :      0.05190635
  |   Hirshfeld second moments:      0.18199495      -0.00000000      -0.00000000
  |                                 -0.00000000       0.18199495       0.00000000
  |                                 -0.00000000       0.00000000       0.17520083
  ----------------------------------------------------------------------
  | Atom     2: H
  |   Hirshfeld charge        :     -0.00000003
  |   Free atom volume        :     10.31539447
  |   Hirshfeld volume        :      3.40051595
  |   Hirshfeld spin moment   :      0.00000001
  |   Hirshfeld dipole vector :     -0.00000000      -0.00000000       0.05190635
  |   Hirshfeld dipole moment :      0.05190635
  |   Hirshfeld second moments:      0.18199495      -0.00000000      -0.00000000
  |                                 -0.00000000       0.18199495       0.00000000
  |                                 -0.00000000       0.00000000       0.17520083
  ----------------------------------------------------------------------


  Total energy components:
  | Sum of eigenvalues            :          -0.95017381 Ha         -25.85554479 eV
  | XC energy correction          :          -0.85898372 Ha         -23.37413634 eV
  | XC potential correction       :           1.10182545 Ha          29.98219600 eV
  | Free-atom electrostatic energy:           0.38021528 Ha          10.34618404 eV
  | Hartree energy correction     :          -0.53070417 Ha         -14.44119513 eV
  | van der Waals energy corr.    :          -0.00000046 Ha          -0.00001265 eV
  | Entropy correction            :           0.00000000 Ha           0.00000000 eV
  | ---------------------------
  | Total energy                  :          -0.85782143 Ha         -23.34250886 eV
  | Total energy, T -> 0          :          -0.85782143 Ha         -23.34250886 eV  <-- do not rely on this value for anything but (periodic) metals
  | Electronic free energy        :          -0.85782143 Ha         -23.34250886 eV

  Derived energy quantities:
  | Kinetic energy                :           1.76472982 Ha          48.02074173 eV
  | Electrostatic energy          :          -1.76356707 Ha         -47.98910160 eV
  | Energy correction for multipole
  | error in Hartree potential    :           0.00031540 Ha           0.00858244 eV
  | Sum of eigenvalues per atom                           :         -12.92777239 eV
  | Total energy (T->0) per atom                          :         -11.67125443 eV  <-- do not rely on this value for anything but (periodic) metals
  | Electronic free energy per atom                       :         -11.67125443 eV
  Timings for VdW correction (Tkatchenko-Scheffler 2009 or later):
  | CPU time:        0.004 s, Wall clock time:        0.004 s.

  Energy and forces in a compact form:
  | Total energy uncorrected      :         -0.233425088636362E+02 eV
  | Total energy corrected        :         -0.233425088636362E+02 eV  <-- do not rely on this value for anything but (periodic) metals
  | Electronic free energy        :         -0.233425088636362E+02 eV

  ------------------------------------ 
  Start decomposition of the XC Energy 
  ------------------------------------ 
  Hartree-Fock part   :          0.000000000 Ha              0.000000000 eV
  ------------------------------------ 
  X Energy            :         -0.815174035 Ha            -22.182014089 eV
  C Energy GGA        :         -0.043809687 Ha             -1.192122250 eV
  Total XC Energy     :         -0.858983722 Ha            -23.374136339 eV
  LDA X and C from self-consistent density 
  X Energy LDA        :         -0.713685042 Ha            -19.420358091 eV
  C Energy LDA        :         -0.103561641 Ha             -2.818055623 eV
  ------------------------------------ 
  End decomposition of the XC Energy 
  ------------------------------------ 

------------------------------------------------------------------------------
  Final output of selected total energy values:

  The following output summarizes some interesting total energy values
  at the end of a run (AFTER all relaxation, molecular dynamics, etc.).

  | Total energy of the DFT / Hartree-Fock s.c.f. calculation      :            -23.342508864 eV
  | Final zero-broadening corrected energy (caution - metals only) :            -23.342508864 eV
  | For reference only, the value of 1 Hartree used in FHI-aims is :             27.211384500 eV

  Before relying on these values, please be sure to understand exactly which
  total energy value is referred to by a given number. Different objects may
  all carry the same name 'total energy'. Definitions:

  Total energy of the DFT / Hartree-Fock s.c.f. calculation:
  | Note that this energy does not include ANY quantities calculated after the
  | s.c.f. cycle, in particular not ANY RPA, MP2, etc. many-body perturbation terms.

  Final zero-broadening corrected energy:
  | For metallic systems only, a broadening of the occupation numbers at the Fermi
  | level can be extrapolated back to zero broadening by an electron-gas inspired
  | formula. For all systems that are not real metals, this value can be
  | meaningless and should be avoided.

------------------------------------------------------------------------------

------------------------------------------------------------
          Leaving FHI-aims.
          Date     :  20220120, Time     :  153720.891

          Computational steps:
          | Number of self-consistency cycles          :           24

          Detailed time accounting                     :  max(cpu_time)    wall_clock(cpu1)
          | Total time                                 :        0.791 s           0.898 s
          | Preparation time                           :        0.077 s           0.078 s
          | Grid partitioning                          :        0.007 s           0.007 s
          | Preloading free-atom quantities on grid    :        0.004 s           0.004 s
          | Free-atom superposition energy             :        0.002 s           0.002 s
          | Total time for integrations                :        0.233 s           0.238 s
          | Total time for solution of K.-S. equations :        0.039 s           0.040 s
          | Total time for density update              :        0.156 s           0.141 s
          | Total time for mixing                      :        0.038 s           0.029 s
          | Total time for Hartree multipole update    :        0.031 s           0.040 s
          | Total time for Hartree multipole sum       :        0.106 s           0.101 s
          | Total time for total energy evaluation     :        0.004 s           0.020 s
          | Total time for scaled ZORA corrections     :        0.000 s           0.000 s
          | Total time for vdW correction              :        0.004 s           0.004 s

          Have a nice day.
------------------------------------------------------------
