  MPI-parallelism will be employed.
------------------------------------------------------------
          Invoking FHI-aims ...
          Version 052014
          Git rev. (modified): 096c982 Merge branch master of fhiaims:/pub/localo[...]
          Compiled on 2016/12/16 at 15:22:01 on host login02.hpc.iitd.ac.in.

          When using FHI-aims, please cite the following reference:

          Volker Blum, Ralf Gehrke, Felix Hanke, Paula Havu,
          Ville Havu, Xinguo Ren, Karsten Reuter, and Matthias Scheffler,
          'Ab Initio Molecular Simulations with Numeric Atom-Centered Orbitals: FHI-aims',
          Computer Physics Communications 180, 2175-2196 (2009)

          For any questions about FHI-aims, please visit the aimsclub website
          with its forums and wiki. Contributions to both the forums and the
          wiki are warmly encouraged - they are for you, and everyone is welcome there.

------------------------------------------------------------

  Date     :  20220120, Time     :  152647.961
  Time zero on CPU 1             :   0.131690000000000E-01  s.
  Internal wall clock time zero  :           411924407.961  s.

  Using        8 parallel tasks.
  Task        0 on host csky019 reporting.
  Task        1 on host csky019 reporting.
  Task        2 on host csky019 reporting.
  Task        3 on host csky019 reporting.
  Task        4 on host csky019 reporting.
  Task        5 on host csky019 reporting.
  Task        6 on host csky019 reporting.
  Task        7 on host csky019 reporting.

  Performing system and environment tests:
  | Environment variable OMP_NUM_THREADS correctly set to 1.
  | Stacksize not measured: no C compiler
  | Checking for scalapack...
  | Testing pdtran()...
  | All pdtran() tests passed.

  Obtaining array dimensions for all initial allocations:
  
  -----------------------------------------------------------------------
  Parsing control.in (first pass over file, find array dimensions only).
  The contents of control.in will be repeated verbatim below
  unless switched off by setting 'verbatim_writeout .false.' .
  in the first line of control.in .
  -----------------------------------------------------------------------
  
    xc               pbe
    spin             collinear
    default_initial_moment hund
    relativistic     atomic_zora scalar 1e-9
    occupation_type  gaussian 0.001
    charge        0
    vdw_correction_hirshfeld
    KS_method        scalapack_fast
    mixer            pulay
    charge_mix_param  0.4
    spin_mix_param    0.6
    sc_accuracy_rho  1E-4
    sc_accuracy_eev  1E-5
    sc_accuracy_etot 1E-5
    sc_iter_limit    100
    empty_states     10
  ################################################################################
  #
  #  FHI-aims code project
  # Volker Blum, Fritz Haber Institute Berlin, 2009
  #
  #  Suggested "tight" defaults for H atom (to be pasted into control.in file)
  #
  ################################################################################
    species        H
  #     global species definitions
      nucleus             1
      mass                1.00794
  #
      l_hartree           6
  #
      cut_pot             4.0  2.0  1.0
      basis_dep_cutoff    1e-4
  #
      radial_base         24 7.0
      radial_multiplier   2
      angular_grids       specified
        division   0.1930   50
        division   0.3175  110
        division   0.4293  194
        division   0.5066  302
        division   0.5626  434
  #      division   0.5922  590
  #      division   0.6227  974
  #      division   0.6868 1202
  #      outer_grid  770
        outer_grid  434
  ################################################################################
  #
  #  Definition of "minimal" basis
  #
  ################################################################################
  #     valence basis states
      valence      1  s   1.
  #     ion occupancy
      ion_occ      1  s   0.5
  ################################################################################
  #
  #  Suggested additional basis functions. For production calculations,
  #  uncomment them one after another (the most important basis functions are
  #  listed first).
  #
  #  Basis constructed for dimers: 0.5 A, 0.7 A, 1.0 A, 1.5 A, 2.5 A
  #
  ################################################################################
  #  "First tier" - improvements: -1014.90 meV to -62.69 meV
       hydro 2 s 2.1
       hydro 2 p 3.5
  #  "Second tier" - improvements: -12.89 meV to -1.83 meV
       hydro 1 s 0.85
       hydro 2 p 3.7
       hydro 2 s 1.2
       hydro 3 d 7
  #  "Third tier" - improvements: -0.25 meV to -0.12 meV
  #     hydro 4 f 11.2
  #     hydro 3 p 4.8
  #     hydro 4 d 9
  #     hydro 3 s 3.2
  ################################################################################
  #
  # For methods that use the localized form of the "resolution of identity" for
  # the two-electron Coulomb operator (RI_method LVL), particularly Hartree-Fock and
  # hybrid density functional calculations, the highest accuracy can be obtained by
  # uncommenting the line beginning with "for_aux"  below, thus adding an extra g radial
  # function to the construction of the product basis set for the expansion.
  # See Ref. New J. Phys. 17, 093020 (2015) for more information, particularly Figs. 1 and 6.
  #
  ################################################################################
  #
  # for_aux hydro 5 g 6.0
  
  -----------------------------------------------------------------------
  Completed first pass over input file control.in .
  -----------------------------------------------------------------------
  
  
  -----------------------------------------------------------------------
  Parsing geometry.in (first pass over file, find array dimensions only).
  The contents of geometry.in will be repeated verbatim below
  unless switched off by setting 'verbatim_writeout .false.' .
  in the first line of geometry.in .
  -----------------------------------------------------------------------
  
  atom 0 0 0 H
  atom 0 0 0.43 H
  
  -----------------------------------------------------------------------
  Completed first pass over input file geometry.in .
  -----------------------------------------------------------------------
  

  Basic array size parameters:
  | Number of species                 :        1
  | Number of atoms                   :        2
  | Max. basis fn. angular momentum   :        2
  | Max. atomic/ionic basis occupied n:        1
  | Max. number of basis fn. types    :        2
  | Max. radial fns per species/type  :        6
  | Max. logarithmic grid size        :     1131
  | Max. radial integration grid size :       49
  | Max. angular integration grid size:      434
  | Max. angular grid division number :        8
  | Radial grid for Hartree potential :     1131
  | Number of spin channels           :        2

------------------------------------------------------------
          Reading file control.in.
------------------------------------------------------------
  XC: Using PBE gradient-corrected functionals.
  Spin treatment: Spin density functional theory - collinear spins.
  Initial spin moment per atom set according to Hund's rules.
  Scalar relativistic treatment of kinetic energy: on-site free-atom approximation to ZORA.
  Occupation type: Gaussian broadening, width =   0.100000E-02 eV.
  Charge =   0.000000E+00: Neutral system requested explicitly.
  Using non-empirical van der Waals correction (Hirshfeld partitioning):
  Kohn-Sham eigenvalues and eigenfunctions calculated by the ELPA eigensolver library.
  Using pulay charge density mixing.
  Charge density mixing - mixing parameter:     0.4000
  Spin density mixing - mixing parameter:     0.6000
  Convergence accuracy of self-consistent charge density: 0.1000E-03
  Convergence accuracy of sum of eigenvalues: 0.1000E-04
  Convergence accuracy of total energy: 0.1000E-04
  Maximum number of s.-c. iterations  :   100
  Number of empty states per atom:       10
 
  Reading configuration options for species H                   .
  | Found nuclear charge :   1.0000
  | Found atomic mass :    1.00794000000000      amu
  | Found l_max for Hartree potential  :   6
  | Found cutoff potl. onset [A], width [A], scale factor :    4.00000    2.00000    1.00000
  | Threshold for basis-dependent cutoff potential is   0.100000E-03
  | Found data for basic radial integration grid :    24 points, outermost radius =    7.000 A
  | Found multiplier for basic radial grid :   2
  | Found angular grid specification: user-specified.
  | Specified grid contains     6 separate shells.
  | Check grid settings after all constraints further below.
  | Found free-atom valence shell :  1 s   1.000
  | No ionic wave fns used. Skipping ion_occ.
  | Found hydrogenic basis function :  2 s   2.100
  | Found hydrogenic basis function :  2 p   3.500
  | Found hydrogenic basis function :  1 s   0.850
  | Found hydrogenic basis function :  2 p   3.700
  | Found hydrogenic basis function :  2 s   1.200
  | Found hydrogenic basis function :  3 d   7.000
  Species H                   : Missing cutoff potential type.
  Defaulting to exp(1/x)/(1-x)^2 type cutoff potential.
  Species H : No 'logarithmic' tag. Using default grid for free atom:
  | Default logarithmic grid data [bohr] : 0.1000E-03 0.1000E+03 0.1012E+01
  Species H : On-site basis accuracy parameter (for Gram-Schmidt orthonormalisation) not specified.
  Using default value basis_acc =  0.1000000E-03.
  Species H                   : Using default innermost maximum threshold i_radial=  2 for radial functions.
  Species H                   : Default cutoff onset for free atom density etc. : 0.40000000E+01 AA.
  Species H                   : Basic radial grid will be enhanced according to radial_multiplier =   2, to contain    49 grid points.
 
  Finished reading input file 'control.in'. Consistency checks are next.
 
  Target number of points in a grid batch is not set. Defaulting to  100
  Method for grid partitioning is not set. Defaulting to parallel hash+maxmin partitioning.
  Batch size limit is not set. Defaulting to    200
  By default, will store active basis functions for each batch.
  If in need of memory, prune_basis_once .false. can be used to disable this option.
  communication_type for Hartree potential was not specified.
  Defaulting to calc_hartree .
  Pulay mixer: Number of relevant iterations not set.
  Defaulting to    8 iterations.
  Pulay mixer: Number of initial linear mixing iterations not set.
  Defaulting to    0 iterations.
  Work space size for distributed Hartree potential not set.
  Defaulting to   0.200000E+03 MB.
  Algorithm-dependent basis array size parameters:
  | n_max_pulay                         :        8
  Calculation of forces was not defined in control.in. No forces will be calculated.
  Geometry relaxation not requested: no relaxation will be performed.
  No accuracy limit for integral partition fn. given. Defaulting to 0.1000E-14.
  No threshold value for u(r) in integrations given. Defaulting to 0.1000E-05.
  No accuracy for occupation numbers given. Defaulting to 0.1000E-07.
  No threshold value for occupation numbers given. Defaulting to 0.0000E+00.
  No accuracy for fermi level given. Defaulting to 0.1000E-19.
  Maximum # of iterations to find E_F not set. Defaulting to  200.
  Will not use alltoall communication since running on < 1024 CPUs.
  Threshold for basis singularities not set.
  Default threshold for basis singularities: 0.1000E-04
  partition_type (choice of integration weights) for integrals was not specified.
  | Using a version of the partition function of Stratmann and coworkers ('stratmann_smoother').
  | At each grid point, the set of atoms used to build the partition table is smoothly restricted to
  | only those atoms whose free-atom density would be non-zero at that grid point.
  Partitioning for Hartree potential was not defined. Using partition_type for integrals.
  | Adjusted default value of keyword multip_moments_threshold to:       0.10000000E-11
  | This value may affect high angular momentum components of the Hartree potential in periodic systems.
  No q(lm)/r^(l+1) cutoff set for long-range Hartree potential.
  | Using default value of  0.100000E-09 .
  | Verify using the multipole_threshold keyword.
  Defaulting to new monopole extrapolation.
  Density update method: automatic selection selected.
------------------------------------------------------------


------------------------------------------------------------
          Reading geometry description geometry.in.
------------------------------------------------------------
  Input structure read successfully.
  The structure contains        2 atoms,  and a total of          2.000 electrons.

  Input geometry:
  | No unit cell requested.
  | Atomic structure:
  |       Atom                x [A]            y [A]            z [A]
  |    1: Species H              0.000000         0.000000         0.000000
  |    2: Species H              0.000000         0.000000         0.430000
  |

  | The smallest distance between any two atoms is         0.43000000 AA.
  |
  | The first atom of this pair is atom number                      1 .
  | The second atom of this pair is atom number                     2 .

  Initial moments and charges:
  |  Atom   Moment         Charge        Species
  |     1  (Hund's rule)   0.000000E+00   H
  |     2  (Hund's rule)   0.000000E+00   H

  Structure-dependent array size parameters: 
  | Number of distinct atom types in initial rho :        1
  | Maximum number of distinct radial functions  :        7
  | Maximum number of basis functions            :       30
  | Number of Kohn-Sham states (occupied + empty):       11
------------------------------------------------------------

------------------------------------------------------------
          Preparing all fixed parts of the calculation.
------------------------------------------------------------
  Determining machine precision:
    2.225073858507201E-308
  Setting up grids for atomic and cluster calculations.

  Creating wave function, potential, and density for free atoms.

  Species: H

  List of occupied orbitals and eigenvalues:
    n    l              occ      energy [Ha]    energy [eV]
    1    0           1.0000        -0.238386        -6.4868

  Spin-polarized or charged system:
  Charge density initialized according to selected moments and charges.

  Creating spin-polarized density from free atoms.

  Species: H
  Charge:   0.000000
  applying Hund's rules ...

  List of occupied orbitals and eigenvalues:
    n    l      energy [Ha]    energy [eV]    occupation
  Spin-up
    1    0        -0.278991        -7.5917     1.00000000
  Spin-down
    1    0         0.090850         2.4721     0.00000000

  Creating fixed part of basis set: Ionic, confined, hydrogenic.
 
  H                    hydrogenic:
 
  List of hydrogenic basis orbitals: 
    n    l      effective z      eigenvalue [eV]  inner max. [A]     outer max. [A]     outer radius [A]   
    2    0         2.100000       -14.9965           0.193243           1.317208           5.373006
    2    1         3.500000       -41.6672           0.602369           0.602369           4.056063
    1    0         0.850000        -9.8292           0.624871           0.624871           5.373006
    2    1         3.700000       -46.5653           0.573622           0.573622           3.910002
    2    0         1.200000        -4.5995           0.334980           2.228188           5.505995
    3    2         7.000000       -74.0753           0.680699           0.680699           3.769201
 

  Adding cutoff potential to free-atom effective potential.
  Creating atomic-like basis functions for current effective potential.

  Species H                   :

  List of atomic basis orbitals and eigenvalues:
    n    l      energy [Ha]    energy [eV]    outer radius [A]
    1    0        -0.238386        -6.4868       5.373006

  Assembling full basis from fixed parts.
  | Species H :   atomic orbital   1 s accepted.
  | Species H :    hydro orbital   2 s accepted.
  | Species H :    hydro orbital   1 s accepted.
  | Species H :    hydro orbital   2 s accepted.
  | Species H :    hydro orbital   2 p accepted.
  | Species H :    hydro orbital   2 p accepted.
  | Species H :    hydro orbital   3 d accepted.
 
  Basis size parameters after reduction:
  | Total number of radial functions:        7
  | Total number of basis functions :       30
 
  Testing on-site integration grid accuracy.
  |  Species  Function  <phi|h_atom|phi> (log., in eV)  <phi|h_atom|phi> (rad., in eV)
           1        1                 -6.4870767962                 -6.4871688290
           1        2                 13.5032046589                 13.5028982997
           1        3                 32.8195184817                 32.8119941656
           1        4                 33.8513856511                 33.7670005767 ***
           1        5                 28.8544614965                 28.8544615203
           1        6                 59.6326952547                 59.6327656460
           1        7                 60.2719308513                 60.2719305949
 * Note: Onsite integrals marked "***" above are less accurate than
 * onsite_accuracy_threshold =    0.03000 eV. Usually, this is harmless.
 * When in doubt, tighten the "radial" and/or "radial_multiplier" flags to check.

  Preparing densities etc. for the partition functions (integrals / Hartree potential).

  Preparations completed.
  max(cpu_time)          :      0.079 s.
  Wall clock time (cpu1) :      0.081 s.
------------------------------------------------------------

------------------------------------------------------------
          Begin self-consistency loop: Initialization.

          Date     :  20220120, Time     :  152648.121
------------------------------------------------------------

  Initializing index lists of integration centers etc. from given atomic structure:
  | Number of centers in hartree potential         :         2
  | Number of centers in hartree multipole         :         2
  | Number of centers in electron density summation:         2
  | Number of centers in basis integrals           :         2
  | Number of centers in integrals                 :         2
  Using modified Scalapack Eigenvalue solver (ELPA)
  * Using 8 tasks for Scalapack Eigenvalue solver.
  Detailed listing of tasks and assigned k-points:
  (for non-periodic systems, the "k-point" denotes an internal label only)
   Task     0 k-point     1 on csky019
   Task     1 k-point     1 on csky019
   Task     2 k-point     1 on csky019
   Task     3 k-point     1 on csky019
   Task     4 k-point     1 on csky019
   Task     5 k-point     1 on csky019
   Task     6 k-point     1 on csky019
   Task     7 k-point     1 on csky019
  Tasks:     8 split into      4 X      2 BLACS grid
  Calculating blocksize based on n_basis =           30 max_nprow =            4 max_npcol =            2
  Scalapack blocksize set to:            4
  Required Scalapack workspace - INTEGER:            1 REAL:             1
  Partitioning the integration grid into batches with parallel hashing+maxmin method.
  | Number of batches:      448
  | Maximal batch size:     197
  | Minimal batch size:      49
  | Average batch size:      64.509
  | Standard deviation of batch sizes:      17.889

  Integration load balanced across     8 MPI tasks.
  Work distribution over tasks is as follows:
  Task     0 has       3586 integration points.
  Task     1 has       3582 integration points.
  Task     2 has       3663 integration points.
  Task     3 has       3622 integration points.
  Task     4 has       3580 integration points.
  Task     5 has       3588 integration points.
  Task     6 has       3677 integration points.
  Task     7 has       3602 integration points.
  Initializing partition tables, free-atom densities, potentials, etc. across the integration grid (initialize_grid_storage).
  | initialize_grid_storage: Actual outermost partition radius vs. multipole_radius_free
  | (-- VB: in principle, multipole_radius_free should be larger, hence this output)
  | Species        1: outer_partition_radius =              6.000000000000000 AA, multipole_radius_free =              6.071692442739658 AA.
  | Original list of interatomic distances with           2 x          2 entries is created.
  | Net number of integration points:    28900
  | of which are non-zero points    :    25858
  Obtaining max. number of non-zero basis functions in each batch (get_n_compute_maxes).
  | Maximal number of non-zero basis functions:       30 in task     0
  | Maximal number of non-zero basis functions:       30 in task     1
  | Maximal number of non-zero basis functions:       30 in task     2
  | Maximal number of non-zero basis functions:       30 in task     3
  | Maximal number of non-zero basis functions:       30 in task     4
  | Maximal number of non-zero basis functions:       30 in task     5
  | Maximal number of non-zero basis functions:       30 in task     6
  | Maximal number of non-zero basis functions:       30 in task     7
  Selecting the method for density update.
  Loop over occupied states selected for charge density update.
  Integrating Hamiltonian matrix: batch-based integration.
  Time summed over all CPUs for integration: real work        0.079 s, elapsed        0.083 s
  Integrating overlap matrix.
  Time summed over all CPUs for integration: real work        0.020 s, elapsed        0.030 s
  Deallocating overlap matrix.

  Updating Kohn-Sham eigenvalues, eigenvectors, occupation numbers, and Fermi level.
  Solving generalized eigenproblem
  Solving real symmetric generalised eigenvalue problem by standard ScaLAPACK.
  Transforming overlap matrix with ScaLAPACK and checking for singularities.
  : Overlap matrix is nonsingular, using Cholesky decomposition
  | Lowest eigenvalue:  0.561908E-04
  Factoring overlap matrix with Cholesky decomposition
  Using Cholesky factor for transformation
  Using 1-stage real ELPA solver
  Solving real symmetric generalised eigenvalue problem by standard ScaLAPACK.
  Using Cholesky factor for transformation
  Using 1-stage real ELPA solver
  Determining occupation numbers for Kohn-Sham eigenstates.
  | Chemical potential (Fermi level) in eV                 : -.18514475E+00
  | Error in electron count due to remaining E_F inaccuracy: 0.00000000E+00
  | Maximum occupation number of highest empty state:  0.00E+00

  Writing Kohn-Sham eigenvalues.

  Spin-up eigenvalues:

  State    Occupation    Eigenvalue [Ha]    Eigenvalue [eV]
      1       1.00000          -0.786342          -21.39746
      2       1.00000          -0.007596           -0.20670
      3       0.00000          -0.005099           -0.13874
      4       0.00000           0.140021            3.81016
      5       0.00000           0.202062            5.49838
      6       0.00000           0.202062            5.49838
      7       0.00000           0.260469            7.08772
      8       0.00000           0.566013           15.40200
      9       0.00000           0.667077           18.15208
     10       0.00000           0.667077           18.15208
     11       0.00000           0.709629           19.30999

  Spin-down eigenvalues:

  State    Occupation    Eigenvalue [Ha]    Eigenvalue [eV]
      1       0.00000           0.099217            2.69983
      2       0.00000           0.110489            3.00655
      3       0.00000           0.509089           13.85303
      4       0.00000           0.526421           14.32465
      5       0.00000           1.124500           30.59920
      6       0.00000           1.195333           32.52667
      7       0.00000           1.195333           32.52667
      8       0.00000           1.389184           37.80163
      9       0.00000           1.389184           37.80163
     10       0.00000           1.532027           41.68857
     11       0.00000           1.629069           44.32923

  Current spin moment of the entire structure :
  | N = N_up - N_down :    2.00
  | S                 :    1.00
  | J                 :    3.00

  Highest occupied state (VBM) at     -0.20670355 eV
  | Occupation number:      1.00000000
  | Spin channel:        1

  Lowest unoccupied state (CBM) at    -0.13874170 eV
  | Occupation number:      0.00000000
  | Spin channel:        1

  Overall HOMO-LUMO gap:      0.06796184 eV.
  Calculating total energy contributions from superposition of free atom densities.

  Total energy components:
  | Sum of eigenvalues            :          -0.79393848 Ha         -21.60416532 eV
  | XC energy correction          :          -0.72035782 Ha         -19.60193359 eV
  | XC potential correction       :           0.93017519 Ha          25.31135464 eV
  | Free-atom electrostatic energy:           0.11193558 Ha           3.04592212 eV
  | Hartree energy correction     :           0.00000000 Ha           0.00000000 eV
  | van der Waals energy corr.    :           0.00000000 Ha           0.00000000 eV
  | Entropy correction            :          -0.00000000 Ha          -0.00000000 eV
  | ---------------------------
  | Total energy                  :          -0.47218553 Ha         -12.84882214 eV
  | Total energy, T -> 0          :          -0.47218553 Ha         -12.84882214 eV  <-- do not rely on this value for anything but (periodic) metals
  | Electronic free energy        :          -0.47218553 Ha         -12.84882214 eV

  Derived energy quantities:
  | Kinetic energy                :           1.29865585 Ha          35.33822364 eV
  | Electrostatic energy          :          -1.05048356 Ha         -28.58511219 eV
  | Energy correction for multipole
  | error in Hartree potential    :           0.00000000 Ha           0.00000000 eV
  | Sum of eigenvalues per atom                           :         -10.80208266 eV
  | Total energy (T->0) per atom                          :          -6.42441107 eV  <-- do not rely on this value for anything but (periodic) metals
  | Electronic free energy per atom                       :          -6.42441107 eV
  Initialize hartree_potential_storage
  Max. number of atoms included in rho_multipole:            2

  End scf initialization - timings             :  max(cpu_time)    wall_clock(cpu1)
  | Time for scf. initialization               :        0.040 s           0.041 s
  | Boundary condition initialization          :        0.000 s           0.000 s
  | Integration                                :        0.015 s           0.015 s
  | Solution of K.-S. eqns.                    :        0.007 s           0.007 s
  | Grid partitioning                          :        0.007 s           0.007 s
  | Preloading free-atom quantities on grid    :        0.004 s           0.003 s
  | Free-atom superposition energy             :        0.002 s           0.003 s
  | Total energy evaluation                    :        0.000 s           0.000 s
------------------------------------------------------------

------------------------------------------------------------
          Begin self-consistency iteration #    1

  Date     :  20220120, Time     :  152648.162
------------------------------------------------------------
  Evaluating new KS density.
  Integration grid: deviation in total charge (<rho> - N_e) =  -3.745665E-07
  | <rho_up-rho_dn> = N_up-N_dn =      2.0000; <|rho_up-rho_dn|> =      2.2939
  Pulay mixing of updated and previous charge densities.

  Evaluating partitioned Hartree potential by multipole expansion.
  | Analytical far-field extrapolation by fixed multipoles:
  | Hartree multipole sum: apparent total charge =   0.135783E-04
  Summing up the Hartree potential.
  Time summed over all CPUs for potential: real work        0.035 s, elapsed        0.036 s
  | RMS charge density error from multipole expansion :   0.801541E-03

  Integrating Hamiltonian matrix: batch-based integration.
  Time summed over all CPUs for integration: real work        0.065 s, elapsed        0.069 s

  Updating Kohn-Sham eigenvalues, eigenvectors, occupation numbers, and Fermi level.
  Solving generalized eigenproblem
  Solving real symmetric generalised eigenvalue problem by standard ScaLAPACK.
  Using Cholesky factor for transformation
  Using 1-stage real ELPA solver
  Solving real symmetric generalised eigenvalue problem by standard ScaLAPACK.
  Using Cholesky factor for transformation
  Using 1-stage real ELPA solver
  Determining occupation numbers for Kohn-Sham eigenstates.
  | Chemical potential (Fermi level) in eV                 : -.80643235E+01
  | Error in electron count due to remaining E_F inaccuracy: 0.00000000E+00
  | Maximum occupation number of highest empty state:  0.00E+00

  Writing Kohn-Sham eigenvalues.

  Spin-up eigenvalues:

  State    Occupation    Eigenvalue [Ha]    Eigenvalue [eV]
      1       1.00000          -0.599925          -16.32479
      2       0.00000           0.058079            1.58041
      3       0.00000           0.064597            1.75776
      4       0.00000           0.186398            5.07214
      5       0.00000           0.208903            5.68454
      6       0.00000           0.208903            5.68454
      7       0.00000           0.324526            8.83079
      8       0.00000           0.623161           16.95707
      9       0.00000           0.708851           19.28881
     10       0.00000           0.708851           19.28881
     11       0.00000           0.790223           21.50307

  Spin-down eigenvalues:

  State    Occupation    Eigenvalue [Ha]    Eigenvalue [eV]
      1       1.00000          -0.407642          -11.09252
      2       0.00000           0.073746            2.00674
      3       0.00000           0.085305            2.32127
      4       0.00000           0.246118            6.69722
      5       0.00000           0.316774            8.61987
      6       0.00000           0.316774            8.61987
      7       0.00000           0.373102           10.15261
      8       0.00000           0.729286           19.84489
      9       0.00000           0.784281           21.34136
     10       0.00000           0.784281           21.34136
     11       0.00000           0.864337           23.51980

  Current spin moment of the entire structure :
  | N = N_up - N_down :    0.00
  | S                 :    0.00
  | J                 :    1.00

  Highest occupied state (VBM) at    -11.09251538 eV
  | Occupation number:      1.00000000
  | Spin channel:        2

  Lowest unoccupied state (CBM) at     1.58040976 eV
  | Occupation number:      0.00000000
  | Spin channel:        1

  Overall HOMO-LUMO gap:     12.67292514 eV.

  Total energy components:
  | Sum of eigenvalues            :          -1.00756732 Ha         -27.41730185 eV
  | XC energy correction          :          -0.44294676 Ha         -12.05319451 eV
  | XC potential correction       :           0.56754495 Ha          15.44368394 eV
  | Free-atom electrostatic energy:           0.11193558 Ha           3.04592212 eV
  | Hartree energy correction     :           0.05874352 Ha           1.59849248 eV
  | van der Waals energy corr.    :           0.00000000 Ha           0.00000000 eV
  | Entropy correction            :           0.00000000 Ha           0.00000000 eV
  | ---------------------------
  | Total energy                  :          -0.71229003 Ha         -19.38239781 eV
  | Total energy, T -> 0          :          -0.71229003 Ha         -19.38239781 eV  <-- do not rely on this value for anything but (periodic) metals
  | Electronic free energy        :          -0.71229003 Ha         -19.38239781 eV

  Derived energy quantities:
  | Kinetic energy                :           0.87344780 Ha          23.76772404 eV
  | Electrostatic energy          :          -1.14279108 Ha         -31.09692735 eV
  | Energy correction for multipole
  | error in Hartree potential    :          -0.00006285 Ha          -0.00171010 eV
  | Sum of eigenvalues per atom                           :         -13.70865092 eV
  | Total energy (T->0) per atom                          :          -9.69119891 eV  <-- do not rely on this value for anything but (periodic) metals
  | Electronic free energy per atom                       :          -9.69119891 eV

  Self-consistency convergence accuracy:
  | Change of charge/spin density : 0.1007E+00 0.1007E+00
  | Change of sum of eigenvalues  : -.5813E+01 eV
  | Change of total energy        : -.6534E+01 eV

  End self-consistency iteration #     1       :  max(cpu_time)    wall_clock(cpu1)
  | Time for this iteration                    :        0.026 s           0.026 s
  | Charge density update                      :        0.006 s           0.006 s
  | Density mixing                             :        0.001 s           0.001 s
  | Hartree multipole update                   :        0.001 s           0.001 s
  | Hartree multipole summation                :        0.005 s           0.005 s
  | Integration                                :        0.009 s           0.009 s
  | Solution of K.-S. eqns.                    :        0.001 s           0.002 s
  | Total energy evaluation                    :        0.000 s           0.000 s
------------------------------------------------------------

------------------------------------------------------------
          Begin self-consistency iteration #    2

  Date     :  20220120, Time     :  152648.190
------------------------------------------------------------
  Evaluating new KS density.
  Integration grid: deviation in total charge (<rho> - N_e) =  -2.247399E-07
  | <rho_up-rho_dn> = N_up-N_dn =     -2.0000; <|rho_up-rho_dn|> =      2.0000
  Pulay mixing of updated and previous charge densities.

  Evaluating partitioned Hartree potential by multipole expansion.
  | Analytical far-field extrapolation by fixed multipoles:
  | Hartree multipole sum: apparent total charge =   0.130472E-04
  Summing up the Hartree potential.
  Time summed over all CPUs for potential: real work        0.032 s, elapsed        0.033 s
  | RMS charge density error from multipole expansion :   0.775767E-03

  Integrating Hamiltonian matrix: batch-based integration.
  Time summed over all CPUs for integration: real work        0.066 s, elapsed        0.067 s

  Updating Kohn-Sham eigenvalues, eigenvectors, occupation numbers, and Fermi level.
  Solving generalized eigenproblem
  Solving real symmetric generalised eigenvalue problem by standard ScaLAPACK.
  Using Cholesky factor for transformation
  Using 1-stage real ELPA solver
  Solving real symmetric generalised eigenvalue problem by standard ScaLAPACK.
  Using Cholesky factor for transformation
  Using 1-stage real ELPA solver
  Determining occupation numbers for Kohn-Sham eigenstates.
  | Chemical potential (Fermi level) in eV                 : -.12237586E+02
  | Error in electron count due to remaining E_F inaccuracy: 0.00000000E+00
  | Maximum occupation number of highest empty state:  0.00E+00

  Current spin moment of the entire structure :
  | N = N_up - N_down :    0.00
  | S                 :    0.00
  | J                 :    1.00

  Highest occupied state (VBM) at    -14.10208793 eV
  | Occupation number:      1.00000000
  | Spin channel:        2

  Lowest unoccupied state (CBM) at     1.14774116 eV
  | Occupation number:      0.00000000
  | Spin channel:        1

  Overall HOMO-LUMO gap:     15.24982909 eV.

  Total energy components:
  | Sum of eigenvalues            :          -1.30361288 Ha         -35.47311119 eV
  | XC energy correction          :          -0.61495777 Ha         -16.73385242 eV
  | XC potential correction       :           0.79276537 Ha          21.57224337 eV
  | Free-atom electrostatic energy:           0.11193558 Ha           3.04592212 eV
  | Hartree energy correction     :           0.04124961 Ha           1.12245902 eV
  | van der Waals energy corr.    :           0.00000000 Ha           0.00000000 eV
  | Entropy correction            :           0.00000000 Ha           0.00000000 eV
  | ---------------------------
  | Total energy                  :          -0.97262008 Ha         -26.46633909 eV
  | Total energy, T -> 0          :          -0.97262008 Ha         -26.46633909 eV  <-- do not rely on this value for anything but (periodic) metals
  | Electronic free energy        :          -0.97262008 Ha         -26.46633909 eV

  Derived energy quantities:
  | Kinetic energy                :           0.81003012 Ha          22.04204114 eV
  | Electrostatic energy          :          -1.16769243 Ha         -31.77452782 eV
  | Energy correction for multipole
  | error in Hartree potential    :          -0.00004941 Ha          -0.00134451 eV
  | Sum of eigenvalues per atom                           :         -17.73655560 eV
  | Total energy (T->0) per atom                          :         -13.23316955 eV  <-- do not rely on this value for anything but (periodic) metals
  | Electronic free energy per atom                       :         -13.23316955 eV

  Self-consistency convergence accuracy:
  | Change of charge/spin density : 0.1607E+00 0.3359E+00
  | Change of sum of eigenvalues  : -.8056E+01 eV
  | Change of total energy        : -.7084E+01 eV

  End self-consistency iteration #     2       :  max(cpu_time)    wall_clock(cpu1)
  | Time for this iteration                    :        0.024 s           0.023 s
  | Charge density update                      :        0.006 s           0.005 s
  | Density mixing                             :        0.001 s           0.001 s
  | Hartree multipole update                   :        0.001 s           0.001 s
  | Hartree multipole summation                :        0.004 s           0.005 s
  | Integration                                :        0.009 s           0.008 s
  | Solution of K.-S. eqns.                    :        0.002 s           0.002 s
  | Total energy evaluation                    :        0.000 s           0.000 s
------------------------------------------------------------

------------------------------------------------------------
          Begin self-consistency iteration #    3

  Date     :  20220120, Time     :  152648.218
------------------------------------------------------------
  Evaluating new KS density.
  Integration grid: deviation in total charge (<rho> - N_e) =  -2.144610E-07
  | <rho_up-rho_dn> = N_up-N_dn =     -1.8628; <|rho_up-rho_dn|> =      1.8628
  Pulay mixing of updated and previous charge densities.

  Evaluating partitioned Hartree potential by multipole expansion.
  | Analytical far-field extrapolation by fixed multipoles:
  | Hartree multipole sum: apparent total charge =   0.130145E-04
  Summing up the Hartree potential.
  Time summed over all CPUs for potential: real work        0.032 s, elapsed        0.033 s
  | RMS charge density error from multipole expansion :   0.635664E-03

  Integrating Hamiltonian matrix: batch-based integration.
  Time summed over all CPUs for integration: real work        0.065 s, elapsed        0.067 s

  Updating Kohn-Sham eigenvalues, eigenvectors, occupation numbers, and Fermi level.
  Solving generalized eigenproblem
  Solving real symmetric generalised eigenvalue problem by standard ScaLAPACK.
  Using Cholesky factor for transformation
  Using 1-stage real ELPA solver
  Solving real symmetric generalised eigenvalue problem by standard ScaLAPACK.
  Using Cholesky factor for transformation
  Using 1-stage real ELPA solver
  Determining occupation numbers for Kohn-Sham eigenstates.
  | Chemical potential (Fermi level) in eV                 : -.92613702E+01
  | Error in electron count due to remaining E_F inaccuracy: 0.00000000E+00
  | Maximum occupation number of highest empty state:  0.00E+00

  Current spin moment of the entire structure :
  | N = N_up - N_down :    0.00
  | S                 :    0.00
  | J                 :    1.00

  Highest occupied state (VBM) at    -12.22051997 eV
  | Occupation number:      1.00000000
  | Spin channel:        2

  Lowest unoccupied state (CBM) at     1.38697644 eV
  | Occupation number:      0.00000000
  | Spin channel:        1

  Overall HOMO-LUMO gap:     13.60749642 eV.

  Total energy components:
  | Sum of eigenvalues            :          -1.09718949 Ha         -29.85604505 eV
  | XC energy correction          :          -0.48620682 Ha         -13.23036084 eV
  | XC potential correction       :           0.62423461 Ha          16.98628787 eV
  | Free-atom electrostatic energy:           0.11193558 Ha           3.04592212 eV
  | Hartree energy correction     :           0.07212390 Ha           1.96259118 eV
  | van der Waals energy corr.    :           0.00000000 Ha           0.00000000 eV
  | Entropy correction            :           0.00000000 Ha           0.00000000 eV
  | ---------------------------
  | Total energy                  :          -0.77510223 Ha         -21.09160472 eV
  | Total energy, T -> 0          :          -0.77510223 Ha         -21.09160472 eV  <-- do not rely on this value for anything but (periodic) metals
  | Electronic free energy        :          -0.77510223 Ha         -21.09160472 eV

  Derived energy quantities:
  | Kinetic energy                :           0.79871399 Ha          21.73411344 eV
  | Electrostatic energy          :          -1.08760939 Ha         -29.59535732 eV
  | Energy correction for multipole
  | error in Hartree potential    :          -0.00004914 Ha          -0.00133707 eV
  | Sum of eigenvalues per atom                           :         -14.92802252 eV
  | Total energy (T->0) per atom                          :         -10.54580236 eV  <-- do not rely on this value for anything but (periodic) metals
  | Electronic free energy per atom                       :         -10.54580236 eV

  Self-consistency convergence accuracy:
  | Change of charge/spin density : 0.2729E+00 0.2874E+00
  | Change of sum of eigenvalues  : 0.5617E+01 eV
  | Change of total energy        : 0.5375E+01 eV

  End self-consistency iteration #     3       :  max(cpu_time)    wall_clock(cpu1)
  | Time for this iteration                    :        0.027 s           0.024 s
  | Charge density update                      :        0.009 s           0.006 s
  | Density mixing                             :        0.001 s           0.001 s
  | Hartree multipole update                   :        0.001 s           0.001 s
  | Hartree multipole summation                :        0.004 s           0.005 s
  | Integration                                :        0.009 s           0.008 s
  | Solution of K.-S. eqns.                    :        0.001 s           0.002 s
  | Total energy evaluation                    :        0.000 s           0.001 s
------------------------------------------------------------

------------------------------------------------------------
          Begin self-consistency iteration #    4

  Date     :  20220120, Time     :  152648.243
------------------------------------------------------------
  Evaluating new KS density.
  Integration grid: deviation in total charge (<rho> - N_e) =  -2.194896E-07
  | <rho_up-rho_dn> = N_up-N_dn =     -1.9181; <|rho_up-rho_dn|> =      1.9181
  Pulay mixing of updated and previous charge densities.

  Evaluating partitioned Hartree potential by multipole expansion.
  | Analytical far-field extrapolation by fixed multipoles:
  | Hartree multipole sum: apparent total charge =   0.650343E-05
  Summing up the Hartree potential.
  Time summed over all CPUs for potential: real work        0.032 s, elapsed        0.033 s
  | RMS charge density error from multipole expansion :   0.268790E-02

  Integrating Hamiltonian matrix: batch-based integration.
  Time summed over all CPUs for integration: real work        0.066 s, elapsed        0.068 s

  Updating Kohn-Sham eigenvalues, eigenvectors, occupation numbers, and Fermi level.
  Solving generalized eigenproblem
  Solving real symmetric generalised eigenvalue problem by standard ScaLAPACK.
  Using Cholesky factor for transformation
  Using 1-stage real ELPA solver
  Solving real symmetric generalised eigenvalue problem by standard ScaLAPACK.
  Using Cholesky factor for transformation
  Using 1-stage real ELPA solver
  Determining occupation numbers for Kohn-Sham eigenstates.
  | Chemical potential (Fermi level) in eV                 : -.17253874E+02
  | Error in electron count due to remaining E_F inaccuracy: 0.00000000E+00
  | Maximum occupation number of highest empty state:  0.00E+00

  Current spin moment of the entire structure :
  | N = N_up - N_down :    0.00
  | S                 :    0.00
  | J                 :    1.00

  Highest occupied state (VBM) at    -17.70345623 eV
  | Occupation number:      1.00000000
  | Spin channel:        2

  Lowest unoccupied state (CBM) at    -0.25099424 eV
  | Occupation number:      0.00000000
  | Spin channel:        1

  Overall HOMO-LUMO gap:     17.45246199 eV.

  Total energy components:
  | Sum of eigenvalues            :          -1.38948377 Ha         -37.80977704 eV
  | XC energy correction          :          -0.50721547 Ha         -13.80203506 eV
  | XC potential correction       :           0.65244830 Ha          17.75402161 eV
  | Free-atom electrostatic energy:           0.11193558 Ha           3.04592212 eV
  | Hartree energy correction     :           0.22873202 Ha           6.22411491 eV
  | van der Waals energy corr.    :           0.00000000 Ha           0.00000000 eV
  | Entropy correction            :           0.00000000 Ha           0.00000000 eV
  | ---------------------------
  | Total energy                  :          -0.90358333 Ha         -24.58775345 eV
  | Total energy, T -> 0          :          -0.90358333 Ha         -24.58775345 eV  <-- do not rely on this value for anything but (periodic) metals
  | Electronic free energy        :          -0.90358333 Ha         -24.58775345 eV

  Derived energy quantities:
  | Kinetic energy                :          -0.32018277 Ha          -8.71261645 eV
  | Electrostatic energy          :          -0.07618510 Ha          -2.07310194 eV
  | Energy correction for multipole
  | error in Hartree potential    :           0.00016837 Ha           0.00458166 eV
  | Sum of eigenvalues per atom                           :         -18.90488852 eV
  | Total energy (T->0) per atom                          :         -12.29387673 eV  <-- do not rely on this value for anything but (periodic) metals
  | Electronic free energy per atom                       :         -12.29387673 eV

  Self-consistency convergence accuracy:
  | Change of charge/spin density : 0.1968E+00 0.3114E+00
  | Change of sum of eigenvalues  : -.7954E+01 eV
  | Change of total energy        : -.3496E+01 eV

  End self-consistency iteration #     4       :  max(cpu_time)    wall_clock(cpu1)
  | Time for this iteration                    :        0.024 s           0.024 s
  | Charge density update                      :        0.006 s           0.005 s
  | Density mixing                             :        0.001 s           0.001 s
  | Hartree multipole update                   :        0.001 s           0.002 s
  | Hartree multipole summation                :        0.004 s           0.004 s
  | Integration                                :        0.009 s           0.009 s
  | Solution of K.-S. eqns.                    :        0.001 s           0.001 s
  | Total energy evaluation                    :        0.000 s           0.000 s
------------------------------------------------------------

------------------------------------------------------------
          Begin self-consistency iteration #    5

  Date     :  20220120, Time     :  152648.270
------------------------------------------------------------
  Evaluating new KS density.
  Integration grid: deviation in total charge (<rho> - N_e) =  -1.826893E-07
  | <rho_up-rho_dn> = N_up-N_dn =     -1.4221; <|rho_up-rho_dn|> =      1.4231
  Pulay mixing of updated and previous charge densities.

  Evaluating partitioned Hartree potential by multipole expansion.
  | Analytical far-field extrapolation by fixed multipoles:
  | Hartree multipole sum: apparent total charge =  -0.196672E-04
  Summing up the Hartree potential.
  Time summed over all CPUs for potential: real work        0.032 s, elapsed        0.033 s
  | RMS charge density error from multipole expansion :   0.191260E-01

  Integrating Hamiltonian matrix: batch-based integration.
  Time summed over all CPUs for integration: real work        0.069 s, elapsed        0.071 s

  Updating Kohn-Sham eigenvalues, eigenvectors, occupation numbers, and Fermi level.
  Solving generalized eigenproblem
  Solving real symmetric generalised eigenvalue problem by standard ScaLAPACK.
  Using Cholesky factor for transformation
  Using 1-stage real ELPA solver
  Solving real symmetric generalised eigenvalue problem by standard ScaLAPACK.
  Using Cholesky factor for transformation
  Using 1-stage real ELPA solver
  Determining occupation numbers for Kohn-Sham eigenstates.
  | Chemical potential (Fermi level) in eV                 : -.59654596E+02
  | Error in electron count due to remaining E_F inaccuracy: 0.00000000E+00
  | Maximum occupation number of highest empty state:  0.00E+00

  Current spin moment of the entire structure :
  | N = N_up - N_down :    0.00
  | S                 :    0.00
  | J                 :    1.00

  Highest occupied state (VBM) at    -64.69343868 eV
  | Occupation number:      1.00000000
  | Spin channel:        2

  Lowest unoccupied state (CBM) at   -12.82186162 eV
  | Occupation number:      0.00000000
  | Spin channel:        1

  Overall HOMO-LUMO gap:     51.87157707 eV.

  Total energy components:
  | Sum of eigenvalues            :          -4.77612107 Ha        -129.96486697 eV
  | XC energy correction          :          -1.34535077 Ha         -36.60885707 eV
  | XC potential correction       :           1.73514320 Ha          47.21564872 eV
  | Free-atom electrostatic energy:           0.11193558 Ha           3.04592212 eV
  | Hartree energy correction     :          -1.97579595 Ha         -53.76414320 eV
  | van der Waals energy corr.    :           0.00000000 Ha           0.00000000 eV
  | Entropy correction            :           0.00000000 Ha           0.00000000 eV
  | ---------------------------
  | Total energy                  :          -6.25018901 Ha        -170.07629640 eV
  | Total energy, T -> 0          :          -6.25018901 Ha        -170.07629640 eV  <-- do not rely on this value for anything but (periodic) metals
  | Electronic free energy        :          -6.25018901 Ha        -170.07629640 eV

  Derived energy quantities:
  | Kinetic energy                :         -13.78702318 Ha        -375.16398896 eV
  | Electrostatic energy          :           8.88218494 Ha         241.69654963 eV
  | Energy correction for multipole
  | error in Hartree potential    :           0.00106300 Ha           0.02892569 eV
  | Sum of eigenvalues per atom                           :         -64.98243348 eV
  | Total energy (T->0) per atom                          :         -85.03814820 eV  <-- do not rely on this value for anything but (periodic) metals
  | Electronic free energy per atom                       :         -85.03814820 eV

  Self-consistency convergence accuracy:
  | Change of charge/spin density : 0.5598E+00 0.1916E+00
  | Change of sum of eigenvalues  : -.9216E+02 eV
  | Change of total energy        : -.1455E+03 eV

  End self-consistency iteration #     5       :  max(cpu_time)    wall_clock(cpu1)
  | Time for this iteration                    :        0.025 s           0.024 s
  | Charge density update                      :        0.006 s           0.005 s
  | Density mixing                             :        0.001 s           0.001 s
  | Hartree multipole update                   :        0.001 s           0.002 s
  | Hartree multipole summation                :        0.004 s           0.004 s
  | Integration                                :        0.009 s           0.009 s
  | Solution of K.-S. eqns.                    :        0.002 s           0.002 s
  | Total energy evaluation                    :        0.000 s           0.001 s
------------------------------------------------------------

------------------------------------------------------------
          Begin self-consistency iteration #    6

  Date     :  20220120, Time     :  152648.299
------------------------------------------------------------
  Evaluating new KS density.
  Integration grid: deviation in total charge (<rho> - N_e) =  -1.365907E-07
  | <rho_up-rho_dn> = N_up-N_dn =     -0.8611; <|rho_up-rho_dn|> =      2.4663
  Pulay mixing of updated and previous charge densities.

  Evaluating partitioned Hartree potential by multipole expansion.
  | Analytical far-field extrapolation by fixed multipoles:
  | Hartree multipole sum: apparent total charge =  -0.315194E-05
  Summing up the Hartree potential.
  Time summed over all CPUs for potential: real work        0.036 s, elapsed        0.039 s
  | RMS charge density error from multipole expansion :   0.722720E-02

  Integrating Hamiltonian matrix: batch-based integration.
  Time summed over all CPUs for integration: real work        0.072 s, elapsed        0.077 s

  Updating Kohn-Sham eigenvalues, eigenvectors, occupation numbers, and Fermi level.
  Solving generalized eigenproblem
  Solving real symmetric generalised eigenvalue problem by standard ScaLAPACK.
  Using Cholesky factor for transformation
  Using 1-stage real ELPA solver
  Solving real symmetric generalised eigenvalue problem by standard ScaLAPACK.
  Using Cholesky factor for transformation
  Using 1-stage real ELPA solver
  Determining occupation numbers for Kohn-Sham eigenstates.
  | Chemical potential (Fermi level) in eV                 : -.24580188E+02
  | Error in electron count due to remaining E_F inaccuracy: 0.00000000E+00
  | Maximum occupation number of highest empty state:  0.00E+00

  Current spin moment of the entire structure :
  | N = N_up - N_down :    0.00
  | S                 :    0.00
  | J                 :    1.00

  Highest occupied state (VBM) at    -26.65184115 eV
  | Occupation number:      1.00000000
  | Spin channel:        2

  Lowest unoccupied state (CBM) at    -1.69441660 eV
  | Occupation number:      0.00000000
  | Spin channel:        1

  Overall HOMO-LUMO gap:     24.95742455 eV.

  Total energy components:
  | Sum of eigenvalues            :          -2.00413922 Ha         -54.53540281 eV
  | XC energy correction          :          -0.71553416 Ha         -19.47067509 eV
  | XC potential correction       :           0.91978813 Ha          25.02870846 eV
  | Free-atom electrostatic energy:           0.11193558 Ha           3.04592212 eV
  | Hartree energy correction     :           0.14239009 Ha           3.87463159 eV
  | van der Waals energy corr.    :           0.00000000 Ha           0.00000000 eV
  | Entropy correction            :           0.00000000 Ha           0.00000000 eV
  | ---------------------------
  | Total energy                  :          -1.54555957 Ha         -42.05681573 eV
  | Total energy, T -> 0          :          -1.54555957 Ha         -42.05681573 eV  <-- do not rely on this value for anything but (periodic) metals
  | Electronic free energy        :          -1.54555957 Ha         -42.05681573 eV

  Derived energy quantities:
  | Kinetic energy                :          -2.41178290 Ha         -65.62795191 eV
  | Electrostatic energy          :           1.58175749 Ha          43.04181127 eV
  | Energy correction for multipole
  | error in Hartree potential    :           0.00056972 Ha           0.01550286 eV
  | Sum of eigenvalues per atom                           :         -27.26770140 eV
  | Total energy (T->0) per atom                          :         -21.02840786 eV  <-- do not rely on this value for anything but (periodic) metals
  | Electronic free energy per atom                       :         -21.02840786 eV

  Self-consistency convergence accuracy:
  | Change of charge/spin density : 0.2850E+01 0.7988E+00
  | Change of sum of eigenvalues  : 0.7543E+02 eV
  | Change of total energy        : 0.1280E+03 eV

  End self-consistency iteration #     6       :  max(cpu_time)    wall_clock(cpu1)
  | Time for this iteration                    :        0.027 s           0.027 s
  | Charge density update                      :        0.006 s           0.006 s
  | Density mixing                             :        0.001 s           0.001 s
  | Hartree multipole update                   :        0.002 s           0.002 s
  | Hartree multipole summation                :        0.005 s           0.005 s
  | Integration                                :        0.010 s           0.010 s
  | Solution of K.-S. eqns.                    :        0.001 s           0.002 s
  | Total energy evaluation                    :        0.000 s           0.001 s
------------------------------------------------------------

------------------------------------------------------------
          Begin self-consistency iteration #    7

  Date     :  20220120, Time     :  152648.329
------------------------------------------------------------
  Evaluating new KS density.
  Integration grid: deviation in total charge (<rho> - N_e) =  -1.182919E-07
  | <rho_up-rho_dn> = N_up-N_dn =     -0.7871; <|rho_up-rho_dn|> =      1.2298
  Pulay mixing of updated and previous charge densities.

  Evaluating partitioned Hartree potential by multipole expansion.
  | Analytical far-field extrapolation by fixed multipoles:
  | Hartree multipole sum: apparent total charge =  -0.120454E-04
  Summing up the Hartree potential.
  Time summed over all CPUs for potential: real work        0.034 s, elapsed        0.040 s
  | RMS charge density error from multipole expansion :   0.113328E-01

  Integrating Hamiltonian matrix: batch-based integration.
  Time summed over all CPUs for integration: real work        0.073 s, elapsed        0.082 s

  Updating Kohn-Sham eigenvalues, eigenvectors, occupation numbers, and Fermi level.
  Solving generalized eigenproblem
  Solving real symmetric generalised eigenvalue problem by standard ScaLAPACK.
  Using Cholesky factor for transformation
  Using 1-stage real ELPA solver
  Solving real symmetric generalised eigenvalue problem by standard ScaLAPACK.
  Using Cholesky factor for transformation
  Using 1-stage real ELPA solver
  Determining occupation numbers for Kohn-Sham eigenstates.
  | Chemical potential (Fermi level) in eV                 : -.30940833E+02
  | Error in electron count due to remaining E_F inaccuracy: 0.00000000E+00
  | Maximum occupation number of highest empty state:  0.00E+00

  Current spin moment of the entire structure :
  | N = N_up - N_down :    0.00
  | S                 :    0.00
  | J                 :    1.00

  Highest occupied state (VBM) at    -33.94291298 eV
  | Occupation number:      1.00000000
  | Spin channel:        2

  Lowest unoccupied state (CBM) at    -2.63907957 eV
  | Occupation number:      0.00000000
  | Spin channel:        1

  Overall HOMO-LUMO gap:     31.30383340 eV.

  Total energy components:
  | Sum of eigenvalues            :          -2.52162745 Ha         -68.61697420 eV
  | XC energy correction          :          -0.91802438 Ha         -24.98071434 eV
  | XC potential correction       :           1.18095459 Ha          32.13540950 eV
  | Free-atom electrostatic energy:           0.11193558 Ha           3.04592212 eV
  | Hartree energy correction     :          -0.18473774 Ha          -5.02696956 eV
  | van der Waals energy corr.    :           0.00000000 Ha           0.00000000 eV
  | Entropy correction            :           0.00000000 Ha           0.00000000 eV
  | ---------------------------
  | Total energy                  :          -2.33149939 Ha         -63.44332648 eV
  | Total energy, T -> 0          :          -2.33149939 Ha         -63.44332648 eV  <-- do not rely on this value for anything but (periodic) metals
  | Electronic free energy        :          -2.33149939 Ha         -63.44332648 eV

  Derived energy quantities:
  | Kinetic energy                :          -4.58866106 Ha        -124.86382041 eV
  | Electrostatic energy          :           3.17518604 Ha          86.40120826 eV
  | Energy correction for multipole
  | error in Hartree potential    :           0.00097861 Ha           0.02662935 eV
  | Sum of eigenvalues per atom                           :         -34.30848710 eV
  | Total energy (T->0) per atom                          :         -31.72166324 eV  <-- do not rely on this value for anything but (periodic) metals
  | Electronic free energy per atom                       :         -31.72166324 eV

  Self-consistency convergence accuracy:
  | Change of charge/spin density : 0.1161E+01 0.2752E+00
  | Change of sum of eigenvalues  : -.1408E+02 eV
  | Change of total energy        : -.2139E+02 eV

  End self-consistency iteration #     7       :  max(cpu_time)    wall_clock(cpu1)
  | Time for this iteration                    :        0.029 s           0.029 s
  | Charge density update                      :        0.007 s           0.007 s
  | Density mixing                             :        0.002 s           0.001 s
  | Hartree multipole update                   :        0.002 s           0.002 s
  | Hartree multipole summation                :        0.005 s           0.006 s
  | Integration                                :        0.010 s           0.010 s
  | Solution of K.-S. eqns.                    :        0.002 s           0.002 s
  | Total energy evaluation                    :        0.000 s           0.001 s
------------------------------------------------------------

------------------------------------------------------------
          Begin self-consistency iteration #    8

  Date     :  20220120, Time     :  152648.360
------------------------------------------------------------
  Evaluating new KS density.
  Integration grid: deviation in total charge (<rho> - N_e) =  -4.527389E-08
  | <rho_up-rho_dn> = N_up-N_dn =     -0.1795; <|rho_up-rho_dn|> =      1.3381
  Pulay mixing of updated and previous charge densities.

  Evaluating partitioned Hartree potential by multipole expansion.
  | Analytical far-field extrapolation by fixed multipoles:
  | Hartree multipole sum: apparent total charge =   0.850840E-06
  Summing up the Hartree potential.
  Time summed over all CPUs for potential: real work        0.033 s, elapsed        0.039 s
  | RMS charge density error from multipole expansion :   0.312177E-02

  Integrating Hamiltonian matrix: batch-based integration.
  Time summed over all CPUs for integration: real work        0.072 s, elapsed        0.083 s

  Updating Kohn-Sham eigenvalues, eigenvectors, occupation numbers, and Fermi level.
  Solving generalized eigenproblem
  Solving real symmetric generalised eigenvalue problem by standard ScaLAPACK.
  Using Cholesky factor for transformation
  Using 1-stage real ELPA solver
  Solving real symmetric generalised eigenvalue problem by standard ScaLAPACK.
  Using Cholesky factor for transformation
  Using 1-stage real ELPA solver
  Determining occupation numbers for Kohn-Sham eigenstates.
  | Chemical potential (Fermi level) in eV                 : -.12143922E+02
  | Error in electron count due to remaining E_F inaccuracy: 0.00000000E+00
  | Maximum occupation number of highest empty state:  0.00E+00

  Current spin moment of the entire structure :
  | N = N_up - N_down :    0.00
  | S                 :    0.00
  | J                 :    1.00

  Highest occupied state (VBM) at    -14.06904109 eV
  | Occupation number:      1.00000000
  | Spin channel:        1

  Lowest unoccupied state (CBM) at     0.90752645 eV
  | Occupation number:      0.00000000
  | Spin channel:        1

  Overall HOMO-LUMO gap:     14.97656754 eV.

  Total energy components:
  | Sum of eigenvalues            :          -1.05997139 Ha         -28.84328895 eV
  | XC energy correction          :          -0.70739527 Ha         -19.24920479 eV
  | XC potential correction       :           0.90895831 Ha          24.73401402 eV
  | Free-atom electrostatic energy:           0.11193558 Ha           3.04592212 eV
  | Hartree energy correction     :          -0.22126193 Ha          -6.02084339 eV
  | van der Waals energy corr.    :           0.00000000 Ha           0.00000000 eV
  | Entropy correction            :           0.00000000 Ha           0.00000000 eV
  | ---------------------------
  | Total energy                  :          -0.96773470 Ha         -26.33340099 eV
  | Total energy, T -> 0          :          -0.96773470 Ha         -26.33340099 eV  <-- do not rely on this value for anything but (periodic) metals
  | Electronic free energy        :          -0.96773470 Ha         -26.33340099 eV

  Derived energy quantities:
  | Kinetic energy                :           0.77270762 Ha          21.02644414 eV
  | Electrostatic energy          :          -1.03304704 Ha         -28.11064034 eV
  | Energy correction for multipole
  | error in Hartree potential    :           0.00056819 Ha           0.01546129 eV
  | Sum of eigenvalues per atom                           :         -14.42164448 eV
  | Total energy (T->0) per atom                          :         -13.16670049 eV  <-- do not rely on this value for anything but (periodic) metals
  | Electronic free energy per atom                       :         -13.16670049 eV

  Self-consistency convergence accuracy:
  | Change of charge/spin density : 0.1660E+01 0.5239E+00
  | Change of sum of eigenvalues  : 0.3977E+02 eV
  | Change of total energy        : 0.3711E+02 eV

  End self-consistency iteration #     8       :  max(cpu_time)    wall_clock(cpu1)
  | Time for this iteration                    :        0.029 s           0.028 s
  | Charge density update                      :        0.007 s           0.006 s
  | Density mixing                             :        0.002 s           0.002 s
  | Hartree multipole update                   :        0.001 s           0.001 s
  | Hartree multipole summation                :        0.006 s           0.006 s
  | Integration                                :        0.010 s           0.010 s
  | Solution of K.-S. eqns.                    :        0.001 s           0.002 s
  | Total energy evaluation                    :        0.000 s           0.001 s
------------------------------------------------------------

------------------------------------------------------------
          Begin self-consistency iteration #    9

  Date     :  20220120, Time     :  152648.389
------------------------------------------------------------
  Evaluating new KS density.
  Integration grid: deviation in total charge (<rho> - N_e) =  -1.757696E-08
  | <rho_up-rho_dn> = N_up-N_dn =     -0.0240; <|rho_up-rho_dn|> =      0.1438
  Pulay mixing of updated and previous charge densities.

  Evaluating partitioned Hartree potential by multipole expansion.
  | Analytical far-field extrapolation by fixed multipoles:
  | Hartree multipole sum: apparent total charge =   0.483927E-05
  Summing up the Hartree potential.
  Time summed over all CPUs for potential: real work        0.033 s, elapsed        0.038 s
  | RMS charge density error from multipole expansion :   0.297684E-02

  Integrating Hamiltonian matrix: batch-based integration.
  Time summed over all CPUs for integration: real work        0.070 s, elapsed        0.080 s

  Updating Kohn-Sham eigenvalues, eigenvectors, occupation numbers, and Fermi level.
  Solving generalized eigenproblem
  Solving real symmetric generalised eigenvalue problem by standard ScaLAPACK.
  Using Cholesky factor for transformation
  Using 1-stage real ELPA solver
  Solving real symmetric generalised eigenvalue problem by standard ScaLAPACK.
  Using Cholesky factor for transformation
  Using 1-stage real ELPA solver
  Determining occupation numbers for Kohn-Sham eigenstates.
  | Chemical potential (Fermi level) in eV                 : -.87534463E+01
  | Error in electron count due to remaining E_F inaccuracy: 0.00000000E+00
  | Maximum occupation number of highest empty state:  0.00E+00

  Current spin moment of the entire structure :
  | N = N_up - N_down :    0.00
  | S                 :    0.00
  | J                 :    1.00

  Highest occupied state (VBM) at    -11.02485158 eV
  | Occupation number:      1.00000000
  | Spin channel:        2

  Lowest unoccupied state (CBM) at     1.28170201 eV
  | Occupation number:      0.00000000
  | Spin channel:        1

  Overall HOMO-LUMO gap:     12.30655359 eV.

  Total energy components:
  | Sum of eigenvalues            :          -0.81797288 Ha         -22.25817454 eV
  | XC energy correction          :          -0.86247003 Ha         -23.46900363 eV
  | XC potential correction       :           1.10902729 Ha          30.17816799 eV
  | Free-atom electrostatic energy:           0.11193558 Ha           3.04592212 eV
  | Hartree energy correction     :          -0.55463065 Ha         -15.09226794 eV
  | van der Waals energy corr.    :           0.00000000 Ha           0.00000000 eV
  | Entropy correction            :           0.00000000 Ha           0.00000000 eV
  | ---------------------------
  | Total energy                  :          -1.01411069 Ha         -27.59535599 eV
  | Total energy, T -> 0          :          -1.01411069 Ha         -27.59535599 eV  <-- do not rely on this value for anything but (periodic) metals
  | Electronic free energy        :          -1.01411069 Ha         -27.59535599 eV

  Derived energy quantities:
  | Kinetic energy                :           1.62895846 Ha          44.32621511 eV
  | Electrostatic energy          :          -1.78059913 Ha         -48.45256747 eV
  | Energy correction for multipole
  | error in Hartree potential    :           0.00039355 Ha           0.01070912 eV
  | Sum of eigenvalues per atom                           :         -11.12908727 eV
  | Total energy (T->0) per atom                          :         -13.79767799 eV  <-- do not rely on this value for anything but (periodic) metals
  | Electronic free energy per atom                       :         -13.79767799 eV

  Self-consistency convergence accuracy:
  | Change of charge/spin density : 0.3185E+00 0.7689E-01
  | Change of sum of eigenvalues  : 0.6585E+01 eV
  | Change of total energy        : -.1262E+01 eV

  End self-consistency iteration #     9       :  max(cpu_time)    wall_clock(cpu1)
  | Time for this iteration                    :        0.028 s           0.029 s
  | Charge density update                      :        0.007 s           0.007 s
  | Density mixing                             :        0.002 s           0.002 s
  | Hartree multipole update                   :        0.001 s           0.001 s
  | Hartree multipole summation                :        0.005 s           0.006 s
  | Integration                                :        0.010 s           0.010 s
  | Solution of K.-S. eqns.                    :        0.002 s           0.002 s
  | Total energy evaluation                    :        0.000 s           0.001 s
------------------------------------------------------------

------------------------------------------------------------
          Begin self-consistency iteration #   10

  Date     :  20220120, Time     :  152648.420
------------------------------------------------------------
  Evaluating new KS density.
  Integration grid: deviation in total charge (<rho> - N_e) =  -2.349727E-08
  | <rho_up-rho_dn> = N_up-N_dn =     -0.0716; <|rho_up-rho_dn|> =      0.0773
  Pulay mixing of updated and previous charge densities.

  Evaluating partitioned Hartree potential by multipole expansion.
  | Analytical far-field extrapolation by fixed multipoles:
  | Hartree multipole sum: apparent total charge =   0.853001E-05
  Summing up the Hartree potential.
  Time summed over all CPUs for potential: real work        0.032 s, elapsed        0.035 s
  | RMS charge density error from multipole expansion :   0.512742E-02

  Integrating Hamiltonian matrix: batch-based integration.
  Time summed over all CPUs for integration: real work        0.064 s, elapsed        0.066 s

  Updating Kohn-Sham eigenvalues, eigenvectors, occupation numbers, and Fermi level.
  Solving generalized eigenproblem
  Solving real symmetric generalised eigenvalue problem by standard ScaLAPACK.
  Using Cholesky factor for transformation
  Using 1-stage real ELPA solver
  Solving real symmetric generalised eigenvalue problem by standard ScaLAPACK.
  Using Cholesky factor for transformation
  Using 1-stage real ELPA solver
  Determining occupation numbers for Kohn-Sham eigenstates.
  | Chemical potential (Fermi level) in eV                 : -.29278308E+01
  | Error in electron count due to remaining E_F inaccuracy: 0.00000000E+00
  | Maximum occupation number of highest empty state:  0.00E+00

  Current spin moment of the entire structure :
  | N = N_up - N_down :    0.00
  | S                 :    0.00
  | J                 :    1.00

  Highest occupied state (VBM) at     -4.97692753 eV
  | Occupation number:      1.00000000
  | Spin channel:        2

  Lowest unoccupied state (CBM) at     2.02523144 eV
  | Occupation number:      0.00000000
  | Spin channel:        1

  Overall HOMO-LUMO gap:      7.00215897 eV.

  Total energy components:
  | Sum of eigenvalues            :          -0.37418630 Ha         -10.18212725 eV
  | XC energy correction          :          -1.15019022 Ha         -31.29826826 eV
  | XC potential correction       :           1.48032373 Ha          40.28165807 eV
  | Free-atom electrostatic energy:           0.11193558 Ha           3.04592212 eV
  | Hartree energy correction     :          -1.13923959 Ha         -31.00028642 eV
  | van der Waals energy corr.    :           0.00000000 Ha           0.00000000 eV
  | Entropy correction            :           0.00000000 Ha           0.00000000 eV
  | ---------------------------
  | Total energy                  :          -1.07135680 Ha         -29.15310174 eV
  | Total energy, T -> 0          :          -1.07135680 Ha         -29.15310174 eV  <-- do not rely on this value for anything but (periodic) metals
  | Electronic free energy        :          -1.07135680 Ha         -29.15310174 eV

  Derived energy quantities:
  | Kinetic energy                :           2.51939427 Ha          68.55620625 eV
  | Electrostatic energy          :          -2.44056085 Ha         -66.41103973 eV
  | Energy correction for multipole
  | error in Hartree potential    :           0.00027264 Ha           0.00741902 eV
  | Sum of eigenvalues per atom                           :          -5.09106363 eV
  | Total energy (T->0) per atom                          :         -14.57655087 eV  <-- do not rely on this value for anything but (periodic) metals
  | Electronic free energy per atom                       :         -14.57655087 eV

  Self-consistency convergence accuracy:
  | Change of charge/spin density : 0.7397E-01 0.2560E-01
  | Change of sum of eigenvalues  : 0.1208E+02 eV
  | Change of total energy        : -.1558E+01 eV

  End self-consistency iteration #    10       :  max(cpu_time)    wall_clock(cpu1)
  | Time for this iteration                    :        0.026 s           0.026 s
  | Charge density update                      :        0.007 s           0.006 s
  | Density mixing                             :        0.002 s           0.002 s
  | Hartree multipole update                   :        0.002 s           0.002 s
  | Hartree multipole summation                :        0.005 s           0.005 s
  | Integration                                :        0.008 s           0.008 s
  | Solution of K.-S. eqns.                    :        0.001 s           0.002 s
  | Total energy evaluation                    :        0.000 s           0.001 s
------------------------------------------------------------

------------------------------------------------------------
          Begin self-consistency iteration #   11

  Date     :  20220120, Time     :  152648.450
------------------------------------------------------------
  Evaluating new KS density.
  Integration grid: deviation in total charge (<rho> - N_e) =  -1.377635E-08
  | <rho_up-rho_dn> = N_up-N_dn =     -0.0005; <|rho_up-rho_dn|> =      0.3257
  Pulay mixing of updated and previous charge densities.

  Evaluating partitioned Hartree potential by multipole expansion.
  | Analytical far-field extrapolation by fixed multipoles:
  | Hartree multipole sum: apparent total charge =   0.776759E-05
  Summing up the Hartree potential.
  Time summed over all CPUs for potential: real work        0.032 s, elapsed        0.033 s
  | RMS charge density error from multipole expansion :   0.471732E-02

  Integrating Hamiltonian matrix: batch-based integration.
  Time summed over all CPUs for integration: real work        0.067 s, elapsed        0.070 s

  Updating Kohn-Sham eigenvalues, eigenvectors, occupation numbers, and Fermi level.
  Solving generalized eigenproblem
  Solving real symmetric generalised eigenvalue problem by standard ScaLAPACK.
  Using Cholesky factor for transformation
  Using 1-stage real ELPA solver
  Solving real symmetric generalised eigenvalue problem by standard ScaLAPACK.
  Using Cholesky factor for transformation
  Using 1-stage real ELPA solver
  Determining occupation numbers for Kohn-Sham eigenstates.
  | Chemical potential (Fermi level) in eV                 : -.38284457E+01
  | Error in electron count due to remaining E_F inaccuracy: 0.00000000E+00
  | Maximum occupation number of highest empty state:  0.00E+00

  Current spin moment of the entire structure :
  | N = N_up - N_down :    0.00
  | S                 :    0.00
  | J                 :    1.00

  Highest occupied state (VBM) at     -5.93384129 eV
  | Occupation number:      1.00000000
  | Spin channel:        2

  Lowest unoccupied state (CBM) at     2.09161512 eV
  | Occupation number:      0.00000000
  | Spin channel:        1

  Overall HOMO-LUMO gap:      8.02545641 eV.

  Total energy components:
  | Sum of eigenvalues            :          -0.44328152 Ha         -12.06230402 eV
  | XC energy correction          :          -1.10040111 Ha         -29.94343773 eV
  | XC potential correction       :           1.41604664 Ha          38.53258969 eV
  | Free-atom electrostatic energy:           0.11193558 Ha           3.04592212 eV
  | Hartree energy correction     :          -1.03929634 Ha         -28.28069221 eV
  | van der Waals energy corr.    :           0.00000000 Ha           0.00000000 eV
  | Entropy correction            :           0.00000000 Ha           0.00000000 eV
  | ---------------------------
  | Total energy                  :          -1.05499675 Ha         -28.70792214 eV
  | Total energy, T -> 0          :          -1.05499675 Ha         -28.70792214 eV  <-- do not rely on this value for anything but (periodic) metals
  | Electronic free energy        :          -1.05499675 Ha         -28.70792214 eV

  Derived energy quantities:
  | Kinetic energy                :           2.38149939 Ha          64.80389552 eV
  | Electrostatic energy          :          -2.33609502 Ha         -63.56837993 eV
  | Energy correction for multipole
  | error in Hartree potential    :           0.00031731 Ha           0.00863448 eV
  | Sum of eigenvalues per atom                           :          -6.03115201 eV
  | Total energy (T->0) per atom                          :         -14.35396107 eV  <-- do not rely on this value for anything but (periodic) metals
  | Electronic free energy per atom                       :         -14.35396107 eV

[...]
  | Change of sum of eigenvalues  : 0.4377E-04 eV
  | Change of total energy        : 0.1793E-09 eV

  End self-consistency iteration #    28       :  max(cpu_time)    wall_clock(cpu1)
  | Time for this iteration                    :        0.027 s           0.027 s
  | Charge density update                      :        0.007 s           0.006 s
  | Density mixing                             :        0.002 s           0.002 s
  | Hartree multipole update                   :        0.001 s           0.002 s
  | Hartree multipole summation                :        0.005 s           0.005 s
  | Integration                                :        0.009 s           0.009 s
  | Solution of K.-S. eqns.                    :        0.001 s           0.002 s
  | Total energy evaluation                    :        0.000 s           0.001 s
------------------------------------------------------------

------------------------------------------------------------
          Begin self-consistency iteration #   29

  Date     :  20220120, Time     :  152649.020
------------------------------------------------------------
  Evaluating new KS density.
  Integration grid: deviation in total charge (<rho> - N_e) =   5.373479E-14
  | <rho_up-rho_dn> = N_up-N_dn =     -0.0000; <|rho_up-rho_dn|> =      0.0000
  Pulay mixing of updated and previous charge densities.

  Evaluating partitioned Hartree potential by multipole expansion.
  | Analytical far-field extrapolation by fixed multipoles:
  | Hartree multipole sum: apparent total charge =   0.293831E-05
  Summing up the Hartree potential.
  Time summed over all CPUs for potential: real work        0.032 s, elapsed        0.033 s
  | RMS charge density error from multipole expansion :   0.260517E-02

  Integrating Hamiltonian matrix: batch-based integration.
  Time summed over all CPUs for integration: real work        0.072 s, elapsed        0.074 s

  Updating Kohn-Sham eigenvalues, eigenvectors, occupation numbers, and Fermi level.
  Solving generalized eigenproblem
  Solving real symmetric generalised eigenvalue problem by standard ScaLAPACK.
  Using Cholesky factor for transformation
  Using 1-stage real ELPA solver
  Solving real symmetric generalised eigenvalue problem by standard ScaLAPACK.
  Using Cholesky factor for transformation
  Using 1-stage real ELPA solver
  Determining occupation numbers for Kohn-Sham eigenstates.
  | Chemical potential (Fermi level) in eV                 : -.10548842E+02
  | Error in electron count due to remaining E_F inaccuracy: 0.00000000E+00
  | Maximum occupation number of highest empty state:  0.00E+00

  Current spin moment of the entire structure :
  | N = N_up - N_down :    0.00
  | S                 :    0.00
  | J                 :    1.00

  Highest occupied state (VBM) at    -12.28761055 eV
  | Occupation number:      1.00000000
  | Spin channel:        2

  Lowest unoccupied state (CBM) at     1.24458144 eV
  | Occupation number:      0.00000000
  | Spin channel:        2

  Overall HOMO-LUMO gap:     13.53219200 eV.

  Total energy components:
  | Sum of eigenvalues            :          -0.90312278 Ha         -24.57522113 eV
  | XC energy correction          :          -0.81655878 Ha         -22.21969503 eV
  | XC potential correction       :           1.04769896 Ha          28.50933921 eV
  | Free-atom electrostatic energy:           0.11193558 Ha           3.04592212 eV
  | Hartree energy correction     :          -0.45761932 Ha         -12.45245519 eV
  | van der Waals energy corr.    :           0.00000000 Ha           0.00000000 eV
  | Entropy correction            :           0.00000000 Ha           0.00000000 eV
  | ---------------------------
  | Total energy                  :          -1.01766634 Ha         -27.69211002 eV
  | Total energy, T -> 0          :          -1.01766634 Ha         -27.69211002 eV  <-- do not rely on this value for anything but (periodic) metals
  | Electronic free energy        :          -1.01766634 Ha         -27.69211002 eV

  Derived energy quantities:
  | Kinetic energy                :           1.58484673 Ha          43.12587375 eV
  | Electrostatic energy          :          -1.78595428 Ha         -48.59828875 eV
  | Energy correction for multipole
  | error in Hartree potential    :           0.00015082 Ha           0.00410408 eV
  | Sum of eigenvalues per atom                           :         -12.28761056 eV
  | Total energy (T->0) per atom                          :         -13.84605501 eV  <-- do not rely on this value for anything but (periodic) metals
  | Electronic free energy per atom                       :         -13.84605501 eV

  Self-consistency convergence accuracy:
  | Change of charge/spin density : 0.1950E-06 0.6284E-07
  | Change of sum of eigenvalues  : -.1046E-04 eV
  | Change of total energy        : -.1691E-10 eV

  End self-consistency iteration #    29       :  max(cpu_time)    wall_clock(cpu1)
  | Time for this iteration                    :        0.025 s           0.025 s
  | Charge density update                      :        0.006 s           0.006 s
  | Density mixing                             :        0.002 s           0.001 s
  | Hartree multipole update                   :        0.001 s           0.002 s
  | Hartree multipole summation                :        0.004 s           0.004 s
  | Integration                                :        0.009 s           0.009 s
  | Solution of K.-S. eqns.                    :        0.001 s           0.002 s
  | Total energy evaluation                    :        0.000 s           0.001 s
------------------------------------------------------------

------------------------------------------------------------
          Begin self-consistency iteration #   30

  Date     :  20220120, Time     :  152649.050
------------------------------------------------------------
  Evaluating new KS density.
  Integration grid: deviation in total charge (<rho> - N_e) =   6.661338E-14
  | <rho_up-rho_dn> = N_up-N_dn =      0.0000; <|rho_up-rho_dn|> =      0.0000
  Pulay mixing of updated and previous charge densities.

  Evaluating partitioned Hartree potential by multipole expansion.
  | Analytical far-field extrapolation by fixed multipoles:
  | Hartree multipole sum: apparent total charge =   0.293831E-05
  Summing up the Hartree potential.
  Time summed over all CPUs for potential: real work        0.032 s, elapsed        0.033 s
  | RMS charge density error from multipole expansion :   0.260517E-02

  Integrating Hamiltonian matrix: batch-based integration.
  Time summed over all CPUs for integration: real work        0.071 s, elapsed        0.073 s

  Updating Kohn-Sham eigenvalues, eigenvectors, occupation numbers, and Fermi level.
  Solving generalized eigenproblem
  Solving real symmetric generalised eigenvalue problem by standard ScaLAPACK.
  Using Cholesky factor for transformation
  Using 1-stage real ELPA solver
  Solving real symmetric generalised eigenvalue problem by standard ScaLAPACK.
  Using Cholesky factor for transformation
  Using 1-stage real ELPA solver
  Determining occupation numbers for Kohn-Sham eigenstates.
  | Chemical potential (Fermi level) in eV                 : -.10548860E+02
  | Error in electron count due to remaining E_F inaccuracy: 0.00000000E+00
  | Maximum occupation number of highest empty state:  0.00E+00

  Current spin moment of the entire structure :
  | N = N_up - N_down :    0.00
  | S                 :    0.00
  | J                 :    1.00

  Highest occupied state (VBM) at    -12.28761067 eV
  | Occupation number:      1.00000000
  | Spin channel:        2

  Lowest unoccupied state (CBM) at     1.24457178 eV
  | Occupation number:      0.00000000
  | Spin channel:        2

  Overall HOMO-LUMO gap:     13.53218245 eV.

  Total energy components:
  | Sum of eigenvalues            :          -0.90312278 Ha         -24.57522135 eV
  | XC energy correction          :          -0.81655878 Ha         -22.21969495 eV
  | XC potential correction       :           1.04769895 Ha          28.50933910 eV
  | Free-atom electrostatic energy:           0.11193558 Ha           3.04592212 eV
  | Hartree energy correction     :          -0.45761931 Ha         -12.45245495 eV
  | van der Waals energy corr.    :           0.00000000 Ha           0.00000000 eV
  | Entropy correction            :           0.00000000 Ha           0.00000000 eV
  | ---------------------------
  | Total energy                  :          -1.01766634 Ha         -27.69211002 eV
  | Total energy, T -> 0          :          -1.01766634 Ha         -27.69211002 eV  <-- do not rely on this value for anything but (periodic) metals
  | Electronic free energy        :          -1.01766634 Ha         -27.69211002 eV

  Derived energy quantities:
  | Kinetic energy                :           1.58484673 Ha          43.12587368 eV
  | Electrostatic energy          :          -1.78595429 Ha         -48.59828876 eV
  | Energy correction for multipole
  | error in Hartree potential    :           0.00015082 Ha           0.00410408 eV
  | Sum of eigenvalues per atom                           :         -12.28761067 eV
  | Total energy (T->0) per atom                          :         -13.84605501 eV  <-- do not rely on this value for anything but (periodic) metals
  | Electronic free energy per atom                       :         -13.84605501 eV

  Self-consistency convergence accuracy:
  | Change of charge/spin density : 0.1767E-07 0.6943E-08
  | Change of sum of eigenvalues  : -.2205E-06 eV
  | Change of total energy        : 0.1474E-11 eV

  Writing Kohn-Sham eigenvalues.

  Spin-up eigenvalues:

  State    Occupation    Eigenvalue [Ha]    Eigenvalue [eV]
      1       1.00000          -0.451561          -12.28761
      2       0.00000           0.045737            1.24457
      3       0.00000           0.050400            1.37146
      4       0.00000           0.218373            5.94224
      5       0.00000           0.347276            9.44987
      6       0.00000           0.351345            9.56060
      7       0.00000           0.351345            9.56060
      8       0.00000           0.716135           19.48703
      9       0.00000           0.772398           21.01802
     10       0.00000           0.772398           21.01802
     11       0.00000           0.826404           22.48760

  Spin-down eigenvalues:

  State    Occupation    Eigenvalue [Ha]    Eigenvalue [eV]
      1       1.00000          -0.451561          -12.28761
      2       0.00000           0.045737            1.24457
      3       0.00000           0.050400            1.37146
      4       0.00000           0.218373            5.94223
      5       0.00000           0.347276            9.44987
      6       0.00000           0.351345            9.56060
      7       0.00000           0.351345            9.56060
      8       0.00000           0.716135           19.48703
      9       0.00000           0.772398           21.01802
     10       0.00000           0.772398           21.01802
     11       0.00000           0.826404           22.48760

  Current spin moment of the entire structure :
  | N = N_up - N_down :    0.00
  | S                 :    0.00
  | J                 :    1.00

  Highest occupied state (VBM) at    -12.28761067 eV
  | Occupation number:      1.00000000
  | Spin channel:        2

  Lowest unoccupied state (CBM) at     1.24457178 eV
  | Occupation number:      0.00000000
  | Spin channel:        2

  Overall HOMO-LUMO gap:     13.53218245 eV.

  Self-consistency cycle converged.

  End self-consistency iteration #    30       :  max(cpu_time)    wall_clock(cpu1)
  | Time for this iteration                    :        0.025 s           0.026 s
  | Charge density update                      :        0.006 s           0.006 s
  | Density mixing                             :        0.002 s           0.001 s
  | Hartree multipole update                   :        0.001 s           0.002 s
  | Hartree multipole summation                :        0.004 s           0.004 s
  | Integration                                :        0.009 s           0.009 s
  | Solution of K.-S. eqns.                    :        0.001 s           0.002 s
  | Total energy evaluation                    :        0.000 s           0.001 s
------------------------------------------------------------
  Obtaining max. number of non-zero basis functions in each batch .
  Evaluating KS electron density on previously omitted grid points.
  Evaluating non-empirical van der Waals correction (Tkatchenko/Scheffler 2009).
  Performing Hirshfeld analysis of fragment charges and moments.
  ----------------------------------------------------------------------
  | Atom     1: H
  |   Hirshfeld charge        :     -0.00000086
  |   Free atom volume        :     10.31539447
  |   Hirshfeld volume        :      3.76495115
  |   Hirshfeld spin moment   :     -0.00000002
  |   Hirshfeld dipole vector :      0.00000000      -0.00000000      -0.05955250
  |   Hirshfeld dipole moment :      0.05955250
  |   Hirshfeld second moments:      0.16919108      -0.00000000       0.00000000
  |                                 -0.00000000       0.16919108       0.00000000
  |                                  0.00000000       0.00000000       0.16357756
  ----------------------------------------------------------------------
  | Atom     2: H
  |   Hirshfeld charge        :     -0.00000086
  |   Free atom volume        :     10.31539447
  |   Hirshfeld volume        :      3.76495115
  |   Hirshfeld spin moment   :     -0.00000002
  |   Hirshfeld dipole vector :      0.00000000      -0.00000000       0.05955250
  |   Hirshfeld dipole moment :      0.05955250
  |   Hirshfeld second moments:      0.16919108      -0.00000000      -0.00000000
  |                                 -0.00000000       0.16919108      -0.00000000
  |                                 -0.00000000      -0.00000000       0.16357756
  ----------------------------------------------------------------------


  Total energy components:
  | Sum of eigenvalues            :          -0.90312278 Ha         -24.57522135 eV
  | XC energy correction          :          -0.81655878 Ha         -22.21969495 eV
  | XC potential correction       :           1.04769895 Ha          28.50933910 eV
  | Free-atom electrostatic energy:           0.11193558 Ha           3.04592212 eV
  | Hartree energy correction     :          -0.45761931 Ha         -12.45245495 eV
  | van der Waals energy corr.    :          -0.00000031 Ha          -0.00000835 eV
  | Entropy correction            :           0.00000000 Ha           0.00000000 eV
  | ---------------------------
  | Total energy                  :          -1.01766665 Ha         -27.69211837 eV
  | Total energy, T -> 0          :          -1.01766665 Ha         -27.69211837 eV  <-- do not rely on this value for anything but (periodic) metals
  | Electronic free energy        :          -1.01766665 Ha         -27.69211837 eV

  Derived energy quantities:
  | Kinetic energy                :           1.58484673 Ha          43.12587368 eV
  | Electrostatic energy          :          -1.78595429 Ha         -48.59828876 eV
  | Energy correction for multipole
  | error in Hartree potential    :           0.00015082 Ha           0.00410408 eV
  | Sum of eigenvalues per atom                           :         -12.28761067 eV
  | Total energy (T->0) per atom                          :         -13.84605919 eV  <-- do not rely on this value for anything but (periodic) metals
  | Electronic free energy per atom                       :         -13.84605919 eV
  Timings for VdW correction (Tkatchenko-Scheffler 2009 or later):
  | CPU time:        0.002 s, Wall clock time:        0.002 s.

  Energy and forces in a compact form:
  | Total energy uncorrected      :         -0.276921183702231E+02 eV
  | Total energy corrected        :         -0.276921183702231E+02 eV  <-- do not rely on this value for anything but (periodic) metals
  | Electronic free energy        :         -0.276921183702231E+02 eV

  ------------------------------------ 
  Start decomposition of the XC Energy 
  ------------------------------------ 
  Hartree-Fock part   :          0.000000000 Ha              0.000000000 eV
  ------------------------------------ 
  X Energy            :         -0.772725680 Ha            -21.026935600 eV
  C Energy GGA        :         -0.043833100 Ha             -1.192759346 eV
  Total XC Energy     :         -0.816558781 Ha            -22.219694945 eV
  LDA X and C from self-consistent density 
  X Energy LDA        :         -0.676665295 Ha            -18.412999525 eV
  C Energy LDA        :         -0.101448671 Ha             -2.760558801 eV
  ------------------------------------ 
  End decomposition of the XC Energy 
  ------------------------------------ 

------------------------------------------------------------------------------
  Final output of selected total energy values:

  The following output summarizes some interesting total energy values
  at the end of a run (AFTER all relaxation, molecular dynamics, etc.).

  | Total energy of the DFT / Hartree-Fock s.c.f. calculation      :            -27.692118370 eV
  | Final zero-broadening corrected energy (caution - metals only) :            -27.692118370 eV
  | For reference only, the value of 1 Hartree used in FHI-aims is :             27.211384500 eV

  Before relying on these values, please be sure to understand exactly which
  total energy value is referred to by a given number. Different objects may
  all carry the same name 'total energy'. Definitions:

  Total energy of the DFT / Hartree-Fock s.c.f. calculation:
  | Note that this energy does not include ANY quantities calculated after the
  | s.c.f. cycle, in particular not ANY RPA, MP2, etc. many-body perturbation terms.

  Final zero-broadening corrected energy:
  | For metallic systems only, a broadening of the occupation numbers at the Fermi
  | level can be extrapolated back to zero broadening by an electron-gas inspired
  | formula. For all systems that are not real metals, this value can be
  | meaningless and should be avoided.

------------------------------------------------------------------------------

------------------------------------------------------------
          Leaving FHI-aims.
          Date     :  20220120, Time     :  152649.087

          Computational steps:
          | Number of self-consistency cycles          :           30

          Detailed time accounting                     :  max(cpu_time)    wall_clock(cpu1)
          | Total time                                 :        1.029 s           1.126 s
          | Preparation time                           :        0.079 s           0.081 s
          | Grid partitioning                          :        0.007 s           0.007 s
          | Preloading free-atom quantities on grid    :        0.004 s           0.003 s
          | Free-atom superposition energy             :        0.002 s           0.003 s
          | Total time for integrations                :        0.314 s           0.312 s
          | Total time for solution of K.-S. equations :        0.055 s           0.062 s
          | Total time for density update              :        0.212 s           0.190 s
          | Total time for mixing                      :        0.055 s           0.051 s
          | Total time for Hartree multipole update    :        0.043 s           0.047 s
          | Total time for Hartree multipole sum       :        0.148 s           0.150 s
          | Total time for total energy evaluation     :        0.006 s           0.021 s
          | Total time for scaled ZORA corrections     :        0.000 s           0.000 s
          | Total time for vdW correction              :        0.002 s           0.002 s

          Have a nice day.
------------------------------------------------------------
