  MPI-parallelism will be employed.
------------------------------------------------------------
          Invoking FHI-aims ...
          Version 052014
          Git rev. (modified): 096c982 Merge branch master of fhiaims:/pub/localo[...]
          Compiled on 2016/12/16 at 15:22:01 on host login02.hpc.iitd.ac.in.

          When using FHI-aims, please cite the following reference:

          Volker Blum, Ralf Gehrke, Felix Hanke, Paula Havu,
          Ville Havu, Xinguo Ren, Karsten Reuter, and Matthias Scheffler,
          'Ab Initio Molecular Simulations with Numeric Atom-Centered Orbitals: FHI-aims',
          Computer Physics Communications 180, 2175-2196 (2009)

          For any questions about FHI-aims, please visit the aimsclub website
          with its forums and wiki. Contributions to both the forums and the
          wiki are warmly encouraged - they are for you, and everyone is welcome there.

------------------------------------------------------------

  Date     :  20220221, Time     :  151607.427
  Time zero on CPU 1             :   0.179650000000000E-01  s.
  Internal wall clock time zero  :           414688567.427  s.

  Using        8 parallel tasks.
  Task        0 on host csky098 reporting.
  Task        1 on host csky098 reporting.
  Task        2 on host csky098 reporting.
  Task        3 on host csky098 reporting.
  Task        4 on host csky098 reporting.
  Task        5 on host csky098 reporting.
  Task        6 on host csky098 reporting.
  Task        7 on host csky098 reporting.

  Performing system and environment tests:
  | Environment variable OMP_NUM_THREADS correctly set to 1.
  | Stacksize not measured: no C compiler
  | Checking for scalapack...
  | Testing pdtran()...
  | All pdtran() tests passed.

  Obtaining array dimensions for all initial allocations:
  
  -----------------------------------------------------------------------
  Parsing control.in (first pass over file, find array dimensions only).
  The contents of control.in will be repeated verbatim below
  unless switched off by setting 'verbatim_writeout .false.' .
  in the first line of control.in .
  -----------------------------------------------------------------------
  
    xc               pbe
    spin             collinear
    default_initial_moment hund
    relativistic     atomic_zora scalar 1e-9
    occupation_type  gaussian 0.001
    charge	0
    vdw_correction_hirshfeld
    KS_method        scalapack_fast
    mixer            pulay
    charge_mix_param  0.4
    spin_mix_param    0.6
    sc_accuracy_rho  1E-4
    sc_accuracy_eev  1E-5
    sc_accuracy_etot 1E-5
    sc_iter_limit    100
    empty_states     5
    ####### keywords for DOS########
    k_grid  4 4 1
  ##########################
  #  relax_geometry trm 5E-5
  #  sc_accuracy_forces 1e-6
  ##########################
    output dos -20 20 10000 0.01
    dos_kgrid_factors 2 2 1
  
  ################################################################################
  #
  #  FHI-aims code project
  # Volker Blum, Fritz Haber Institute Berlin, 2009
  #
  #  Suggested "tight" defaults for C atom (to be pasted into control.in file)
  #
  ################################################################################
    species        C
  #     global species definitions
      nucleus             6
      mass                12.0107
  #
      l_hartree           6
  #
      cut_pot             4.0  2.0  1.0
      basis_dep_cutoff    1e-4
  #
      radial_base         34 7.0
      radial_multiplier   2
      angular_grids specified
        division   0.2187   50
        division   0.4416  110
        division   0.6335  194
        division   0.7727  302
        division   0.8772  434
  #      division   0.9334  590
  #      division   0.9924  770
  #      division   1.0230  974
  #      division   1.5020 1202
  #     outer_grid  974
        outer_grid  434
  ################################################################################
  #
  #  Definition of "minimal" basis
  #
  ################################################################################
  #     valence basis states
      valence      2  s   2.
      valence      2  p   2.
  #     ion occupancy
      ion_occ      2  s   1.
      ion_occ      2  p   1.
  ################################################################################
  #
  #  Suggested additional basis functions. For production calculations,
  #  uncomment them one after another (the most important basis functions are
  #  listed first).
  #
  #  Constructed for dimers: 1.0 A, 1.25 A, 1.5 A, 2.0 A, 3.0 A
  #
  ################################################################################
  #  "First tier" - improvements: -1214.57 meV to -155.61 meV
       hydro 2 p 1.7
       hydro 3 d 6
       hydro 2 s 4.9
  #  "Second tier" - improvements: -67.75 meV to -5.23 meV
       hydro 4 f 9.8
       hydro 3 p 5.2
       hydro 3 s 4.3
       hydro 5 g 14.4
       hydro 3 d 6.2
  #  "Third tier" - improvements: -2.43 meV to -0.60 meV
  #     hydro 2 p 5.6
  #     hydro 2 s 1.4
  #     hydro 3 d 4.9
  #     hydro 4 f 11.2
  #  "Fourth tier" - improvements: -0.39 meV to -0.18 meV
  #     hydro 2 p 2.1
  #     hydro 5 g 16.4
  #     hydro 4 d 13.2
  #     hydro 3 s 13.6
  #     hydro 4 f 17.6
  #  Further basis functions - improvements: -0.08 meV and below
  #     hydro 3 s 2
  #     hydro 3 p 6
  #     hydro 4 d 20
  ################################################################################
  #
  # For methods that use the localized form of the "resolution of identity" for
  # the two-electron Coulomb operator (RI_method LVL), particularly Hartree-Fock and
  # hybrid density functional calculations, the highest accuracy can be obtained by
  # uncommenting the line beginning with "for_aux"  below, thus adding an extra g radial
  # function to the construction of the product basis set for the expansion.
  # See Ref. New J. Phys. 17, 093020 (2015) for more information, particularly Figs. 1 and 6.
  #
  ################################################################################
  #
  # for_aux hydro 5 g 6.0
  
  -----------------------------------------------------------------------
  Completed first pass over input file control.in .
  -----------------------------------------------------------------------
  
  
  -----------------------------------------------------------------------
  Parsing geometry.in (first pass over file, find array dimensions only).
  The contents of geometry.in will be repeated verbatim below
  unless switched off by setting 'verbatim_writeout .false.' .
  in the first line of geometry.in .
  -----------------------------------------------------------------------
  
  lattice_vector   2.1304216  -1.2299995   0.0000000
  lattice_vector   0.0000000   2.4599989   0.0000000
  lattice_vector   0.0000000   0.0000000   6.8000000
  
  atom_frac                      -0.666667  -0.333333   0.500000  C
  atom_frac                       0.666667   0.333333   0.500000  C
  
  
  -----------------------------------------------------------------------
  Completed first pass over input file geometry.in .
  -----------------------------------------------------------------------
  

  Basic array size parameters:
  | Number of species                 :        1
  | Number of atoms                   :        2
  | Number of lattice vectors         :        3
  | Max. basis fn. angular momentum   :        4
  | Max. atomic/ionic basis occupied n:        2
  | Max. number of basis fn. types    :        2
  | Max. radial fns per species/type  :        8
  | Max. logarithmic grid size        :     1277
  | Max. radial integration grid size :       69
  | Max. angular integration grid size:      434
  | Max. angular grid division number :        8
  | Radial grid for Hartree potential :     1277
  | Number of spin channels           :        2

------------------------------------------------------------
          Reading file control.in.
------------------------------------------------------------
  XC: Using PBE gradient-corrected functionals.
  Spin treatment: Spin density functional theory - collinear spins.
  Initial spin moment per atom set according to Hund's rules.
  Scalar relativistic treatment of kinetic energy: on-site free-atom approximation to ZORA.
  Occupation type: Gaussian broadening, width =   0.100000E-02 eV.
  Charge =   0.000000E+00: Neutral system requested explicitly.
  Using non-empirical van der Waals correction (Hirshfeld partitioning):
  Kohn-Sham eigenvalues and eigenfunctions calculated by the ELPA eigensolver library.
  Using pulay charge density mixing.
  Charge density mixing - mixing parameter:     0.4000
  Spin density mixing - mixing parameter:     0.6000
  Convergence accuracy of self-consistent charge density: 0.1000E-03
  Convergence accuracy of sum of eigenvalues: 0.1000E-04
  Convergence accuracy of total energy: 0.1000E-04
  Maximum number of s.-c. iterations  :   100
  Number of empty states per atom:        5
  Found k-point grid:         4         4         1
  Calculating density of states with
  | energy interval :-20.000000 20.000000
  | points & broadening : 10000  0.010000
  Found k-point grid multipliers for perturbative DOS :         2         2         1
 
  Reading configuration options for species C                   .
  | Found nuclear charge :   6.0000
  | Found atomic mass :    12.0107000000000      amu
  | Found l_max for Hartree potential  :   6
  | Found cutoff potl. onset [A], width [A], scale factor :    4.00000    2.00000    1.00000
  | Threshold for basis-dependent cutoff potential is   0.100000E-03
  | Found data for basic radial integration grid :    34 points, outermost radius =    7.000 A
  | Found multiplier for basic radial grid :   2
  | Found angular grid specification: user-specified.
  | Specified grid contains     6 separate shells.
  | Check grid settings after all constraints further below.
  | Found free-atom valence shell :  2 s   2.000
  | Found free-atom valence shell :  2 p   2.000
  | No ionic wave fns used. Skipping ion_occ.
  | No ionic wave fns used. Skipping ion_occ.
  | Found hydrogenic basis function :  2 p   1.700
  | Found hydrogenic basis function :  3 d   6.000
  | Found hydrogenic basis function :  2 s   4.900
  | Found hydrogenic basis function :  4 f   9.800
  | Found hydrogenic basis function :  3 p   5.200
  | Found hydrogenic basis function :  3 s   4.300
  | Found hydrogenic basis function :  5 g  14.400
  | Found hydrogenic basis function :  3 d   6.200
  Species C                   : Missing cutoff potential type.
  Defaulting to exp(1/x)/(1-x)^2 type cutoff potential.
  Species C : No 'logarithmic' tag. Using default grid for free atom:
  | Default logarithmic grid data [bohr] : 0.1000E-03 0.1000E+03 0.1012E+01
  Species C : On-site basis accuracy parameter (for Gram-Schmidt orthonormalisation) not specified.
  Using default value basis_acc =  0.1000000E-03.
  Species C                   : Using default innermost maximum threshold i_radial=  2 for radial functions.
  Species C                   : Default cutoff onset for free atom density etc. : 0.40000000E+01 AA.
  Species C                   : Basic radial grid will be enhanced according to radial_multiplier =   2, to contain    69 grid points.
 
  Finished reading input file 'control.in'. Consistency checks are next.
 
  Target number of points in a grid batch is not set. Defaulting to  100
  Method for grid partitioning is not set. Defaulting to parallel hash+maxmin partitioning.
  Batch size limit is not set. Defaulting to    200
  By default, will store active basis functions for each batch.
  If in need of memory, prune_basis_once .false. can be used to disable this option.
  communication_type for Hartree potential was not specified.
  Defaulting to calc_hartree .
  Pulay mixer: Number of relevant iterations not set.
  Defaulting to    8 iterations.
  Pulay mixer: Number of initial linear mixing iterations not set.
  Defaulting to    0 iterations.
  Work space size for distributed Hartree potential not set.
  Defaulting to   0.200000E+03 MB.
  Algorithm-dependent basis array size parameters:
  | n_max_pulay                         :        8
  Calculation of forces was not defined in control.in. No forces will be calculated.
  Geometry relaxation not requested: no relaxation will be performed.
  No accuracy limit for integral partition fn. given. Defaulting to 0.1000E-14.
  No threshold value for u(r) in integrations given. Defaulting to 0.1000E-05.
  No accuracy for occupation numbers given. Defaulting to 0.1000E-07.
  No threshold value for occupation numbers given. Defaulting to 0.0000E+00.
  No accuracy for fermi level given. Defaulting to 0.1000E-19.
  Maximum # of iterations to find E_F not set. Defaulting to  200.
 * You have    16 k-points in your system, but only     8 MPI-tasks available.
 * In this case using ScaLAPACK is not necessary / supported.
 * Switching to default eigenvalue solver (lapack_fast) instead.
  Will not use alltoall communication since running on < 1024 CPUs.
  Threshold for basis singularities not set.
  Default threshold for basis singularities: 0.1000E-04
  partition_type (choice of integration weights) for integrals was not specified.
  | Using a version of the partition function of Stratmann and coworkers ('stratmann_smoother').
  | At each grid point, the set of atoms used to build the partition table is smoothly restricted to
  | only those atoms whose free-atom density would be non-zero at that grid point.
  Partitioning for Hartree potential was not defined. Using partition_type for integrals.
  | Adjusted default value of keyword multip_moments_threshold to:       0.10000000E-11
  | This value may affect high angular momentum components of the Hartree potential in periodic systems.
  Angular momentum expansion for Kerker preconditioner not set explicitly.
  | Using default value of   0
  No explicit requirement for turning off preconditioner.
  | By default, it will be turned off when the charge convergence reaches
  | sc_accuracy_rho  =   0.100000E-03
  | sc_accuracy_eev  =   0.100000E-04
  | sc_accuracy_etot =   0.100000E-04
  No special mixing parameter while Kerker preconditioner is on.
  Using default: charge_mix_param =     0.4000.
  No q(lm)/r^(l+1) cutoff set for long-range Hartree potential.
  | Using default value of  0.100000E-09 .
  | Verify using the multipole_threshold keyword.
  Defaulting to new monopole extrapolation.
  Density update method: automatic selection selected.
  Using density matrix based charge density update.
  Using density matrix based charge density update.
  Using packed matrix style: index .
  Defaulting to use time-reversal symmetry for k-point grid.
  Using the following vdw_convergence_threshold for supercell sums
  over the Tkatchenko-Scheffler correction: 0.100000E-04 eV.
------------------------------------------------------------


------------------------------------------------------------
          Reading geometry description geometry.in.
------------------------------------------------------------
  Input structure read successfully.
  The structure contains        2 atoms,  and a total of         12.000 electrons.

  Input geometry:
  | Unit cell:
  |         2.130422        -1.229999         0.000000
  |         0.000000         2.459999         0.000000
  |         0.000000         0.000000         6.800000
  | Atomic structure:
  |       Atom                x [A]            y [A]            z [A]
  |    1: Species C             -1.420282         0.000001         3.400000
  |    2: Species C              1.420282        -0.000001         3.400000
  |

  | The smallest distance between any two atoms is         1.42027960 AA.
  |
  | The first atom of this pair is atom number                      2 .
  | The second atom of this pair is atom number                     1 .
  | Wigner-Seitz cell of the first atom image           1     0     0 .
  | (The Wigner-Seitz cell of the second atom is 0 0 0  by definition.)

  Quantities derived from the lattice vectors:
  | Reciprocal lattice vector 1:  2.949268 -0.000000  0.000000
  | Reciprocal lattice vector 2:  1.474634  2.554142  0.000000
  | Reciprocal lattice vector 3:  0.000000  0.000000  0.923998
  | Unit cell volume                               :   0.356377E+02  A^3

  Initial moments and charges:
  |  Atom   Moment         Charge        Species
  |     1  (Hund's rule)   0.000000E+00   C
  |     2  (Hund's rule)   0.000000E+00   C

  Structure-dependent array size parameters: 
  | Number of distinct atom types in initial rho :        1
  | Maximum number of distinct radial functions  :       11
  | Maximum number of basis functions            :       78
  | Number of Kohn-Sham states (occupied + empty):       11
------------------------------------------------------------

------------------------------------------------------------
          Preparing all fixed parts of the calculation.
------------------------------------------------------------
  Determining machine precision:
    2.225073858507201E-308
  Setting up grids for atomic and cluster calculations.

  Creating wave function, potential, and density for free atoms.

  Species: C

  List of occupied orbitals and eigenvalues:
    n    l              occ      energy [Ha]    energy [eV]
    1    0           2.0000       -10.049212      -273.4530
    2    0           2.0000        -0.504761       -13.7352
    2    1           2.0000        -0.193631        -5.2690

  Spin-polarized or charged system:
  Charge density initialized according to selected moments and charges.

  Creating spin-polarized density from free atoms.

  Species: C
  Charge:   0.000000
  applying Hund's rules ...

  List of occupied orbitals and eigenvalues:
    n    l      energy [Ha]    energy [eV]    occupation
  Spin-up
    1    0       -10.040873      -273.2261     1.00000000
    2    0        -0.537730       -14.6324     1.00000000
    2    1        -0.223635        -6.0854     2.00000000
  Spin-down
    1    0       -10.011077      -272.4153     1.00000000
    2    0        -0.436278       -11.8717     1.00000000
    2    1        -0.132089        -3.5943     0.00000000

  Creating fixed part of basis set: Ionic, confined, hydrogenic.
 
  C                    hydrogenic:
 
  List of hydrogenic basis orbitals: 
    n    l      effective z      eigenvalue [eV]  inner max. [A]     outer max. [A]     outer radius [A]   
    2    1         1.700000        -9.8152           1.245706           1.245706           5.401630
    3    2         6.000000       -54.4226           0.792453           0.792453           4.178599
    2    0         4.900000       -81.6681           0.082559           0.562749           3.353238
    4    3         9.800000       -81.6681           0.863254           0.863254           4.028125
    3    1         5.200000       -40.8774           0.305389           1.215618           4.898362
    3    0         4.300000       -27.9508           0.091041           1.610311           5.401630
    5    4        14.400000      -112.8510           0.917666           0.917666           3.883070
    3    2         6.200000       -58.1113           0.763917           0.763917           4.077671
 

  Adding cutoff potential to free-atom effective potential.
  Creating atomic-like basis functions for current effective potential.

  Species C                   :

  List of atomic basis orbitals and eigenvalues:
    n    l      energy [Ha]    energy [eV]    outer radius [A]
    1    0       -10.049212      -273.4530       1.934409
    2    0        -0.504761       -13.7352       5.271162
    2    1        -0.193631        -5.2690       5.401630

  Assembling full basis from fixed parts.
  | Species C :   atomic orbital   1 s accepted.
  | Species C :    hydro orbital   2 s accepted.
  | Species C :   atomic orbital   2 s accepted.
  | Species C :    hydro orbital   3 s accepted.
  | Species C :    hydro orbital   3 p accepted.
  | Species C :   atomic orbital   2 p accepted.
  | Species C :    hydro orbital   2 p accepted.
  | Species C :    hydro orbital   3 d accepted.
  | Species C :    hydro orbital   3 d accepted.
  | Species C :    hydro orbital   4 f accepted.
  | Species C :    hydro orbital   5 g accepted.
 
  Basis size parameters after reduction:
  | Total number of radial functions:       11
  | Total number of basis functions :       78
 
  Testing on-site integration grid accuracy.
  |  Species  Function  <phi|h_atom|phi> (log., in eV)  <phi|h_atom|phi> (rad., in eV)
           1        1               -273.4529725981               -273.4529710451
           1        2                -10.7721037329                -10.7721022102
           1        3                 17.6044132585                 17.6044162052
           1        4                 53.7706460564                 53.7706913681
           1        5                 15.0973290351                 15.0973256011
           1        6                  3.8545134677                  3.8545724657
           1        7                 12.1156992586                 12.1182024423
           1        8                 29.4352039288                 29.4352041805
           1        9                 54.8741144697                 54.8740268719
           1       10                 59.3556032036                 59.3556031370
           1       11                 93.4551837140                 93.4551837996

  Preparing densities etc. for the partition functions (integrals / Hartree potential).

  Preparations completed.
  max(cpu_time)          :      0.175 s.
  Wall clock time (cpu1) :      0.176 s.
------------------------------------------------------------

------------------------------------------------------------
          Begin self-consistency loop: Initialization.

          Date     :  20220221, Time     :  151607.687
------------------------------------------------------------

  Initializing index lists of integration centers etc. from given atomic structure:
  Mapping all atomic coordinates to central unit cell.

  Initializing the k-points
          Using symmetry for reducing the k-points
  | k-points reduced from:       16 to       10
  | Number of k-points                             :        10
  The eigenvectors in the calculations are COMPLEX.
  | K-points in task   0:         1
  | K-points in task   1:         2
  | K-points in task   2:         2
  | K-points in task   3:         1
  | K-points in task   4:         1
  | K-points in task   5:         1
  | K-points in task   6:         1
  | K-points in task   7:         1
  | Number of basis functions in the Hamiltonian integrals :      3472
  | Number of basis functions in a single unit cell        :        78
  | Number of centers in hartree potential         :       646
  | Number of centers in hartree multipole         :       548
  | Number of centers in electron density summation:       428
  | Number of centers in basis integrals           :       456
  | Number of centers in integrals                 :       136
  | Consuming         36 KiB for k_phase.
  | Number of super-cells :                 234
  | Size of matrix packed + index :      284874
  Perform CPU consistency test for lattice for partition grid
  Perform CPU consistency test for map_to_center_cell_matrix for partition grid
  Partitioning the integration grid into batches with parallel hashing+maxmin method.
  | Number of batches:      496
  | Maximal batch size:     108
  | Minimal batch size:      50
  | Average batch size:      72.895
  | Standard deviation of batch sizes:      20.938

  Integration load balanced across     8 MPI tasks.
  Work distribution over tasks is as follows:
  Task     0 has       4522 integration points.
  Task     1 has       4521 integration points.
  Task     2 has       4485 integration points.
  Task     3 has       4502 integration points.
  Task     4 has       4502 integration points.
  Task     5 has       4538 integration points.
  Task     6 has       4549 integration points.
  Task     7 has       4537 integration points.
  Initializing partition tables, free-atom densities, potentials, etc. across the integration grid (initialize_grid_storage).
  | initialize_grid_storage: Actual outermost partition radius vs. multipole_radius_free
  | (-- VB: in principle, multipole_radius_free should be larger, hence this output)
  | Species        1: outer_partition_radius =              6.000000000000000 AA, multipole_radius_free =              6.029870734432609 AA.
  | Original list of interatomic distances with         456 x        456 entries is created.
  | Net number of integration points:    36156
  | of which are non-zero points    :    26826
  | Numerical average free-atom electrostatic potential    :     -6.92761138 eV
  Obtaining max. number of non-zero basis functions in each batch (get_n_compute_maxes).
  | Maximal number of non-zero basis functions:     1323 in task     0
  | Maximal number of non-zero basis functions:     1222 in task     1
  | Maximal number of non-zero basis functions:     1309 in task     2
  | Maximal number of non-zero basis functions:     1309 in task     3
  | Maximal number of non-zero basis functions:     1309 in task     4
  | Maximal number of non-zero basis functions:     1309 in task     5
  | Maximal number of non-zero basis functions:     1318 in task     6
  | Maximal number of non-zero basis functions:     1309 in task     7
  Integrating Hamiltonian matrix: batch-based integration.
  Time summed over all CPUs for integration: real work       14.184 s, elapsed       14.417 s
  Integrating overlap matrix.
  Time summed over all CPUs for integration: real work        5.874 s, elapsed        5.968 s
  Decreasing sparse matrix size:
   Tolerance:  9.999999824516700E-014
   Hamiltonian matrix
  | Array has   179225 nonzero elements out of   284874 elements
  | Sparsity factor is 0.371
   Overlap matrix
  | Array has   161147 nonzero elements out of   284874 elements
  | Sparsity factor is 0.434
  New size of hamiltonian matrix:      180040

  Updating Kohn-Sham eigenvalues, eigenvectors, occupation numbers, and Fermi level.
  Solving generalized eigenproblem
  Transforming overlap matrix and checking for singularities.
  Overlap matrix is nonsingular at first k-point:
  | Lowest eigenvalue:  0.153553E-03
  Determining occupation numbers for Kohn-Sham eigenstates.
  | Chemical potential (Fermi level) in eV                 : -.86310040E+01
  | Error in electron count due to remaining E_F inaccuracy: 0.00000000E+00
  | Maximum occupation number of highest empty state:  0.00E+00

  Writing Kohn-Sham eigenvalues.

  Spin-up eigenvalues:
  K-point:       1 at    0.000000    0.000000    0.000000 (in units of recip. lattice)

  State    Occupation    Eigenvalue [Ha]    Eigenvalue [eV]
      1       1.00000         -10.181848         -277.06218
      2       1.00000         -10.180882         -277.03589
      3       1.00000          -1.102207          -29.99257
      4       1.00000          -0.620114          -16.87417
      5       1.00000          -0.528020          -14.36816
      6       1.00000          -0.528017          -14.36806
      7       0.00000          -0.085400           -2.32384
      8       0.00000          -0.085394           -2.32369
      9       0.00000          -0.024009           -0.65332
     10       0.00000           0.040709            1.10776
     11       0.00000           0.048401            1.31707

  Spin-down eigenvalues:
  K-point:       1 at    0.000000    0.000000    0.000000 (in units of recip. lattice)

  State    Occupation    Eigenvalue [Ha]    Eigenvalue [eV]
      1       1.00000         -10.149912         -276.19315
      2       1.00000         -10.148980         -276.16780
      3       1.00000          -0.975509          -26.54495
      4       1.00000          -0.506695          -13.78788
      5       1.00000          -0.396552          -10.79073
      6       1.00000          -0.396548          -10.79063
      7       0.00000           0.040540            1.10314
      8       0.00000           0.040544            1.10325
      9       0.00000           0.041938            1.14118
     10       0.00000           0.094711            2.57721
     11       0.00000           0.163747            4.45578

  Current spin moment of the entire structure :
  | N = N_up - N_down (sum over all k points):         0.00000
  | S (sum over all k points)                :         0.00000

  What follows are estimated values for band gap, HOMO, LUMO, etc.
  | They are estimated on a discrete k-point grid and not necessarily exact.
  | For converged numbers, create a DOS and/or band structure plot on a denser k-grid.

  Highest occupied state (VBM) at     -8.73314594 eV (relative to internal zero)
  | Occupation number:      1.00000000
  | K-point:       7 at    0.500000    0.000000    0.000000 (in units of recip. lattice)
  | Spin channel:        2

  Lowest unoccupied state (CBM) at    -7.73766560 eV (relative to internal zero)
  | Occupation number:      0.00000000
  | K-point:       3 at    0.000000    0.500000    0.000000 (in units of recip. lattice)
  | Spin channel:        1

  ESTIMATED overall HOMO-LUMO gap:      0.99548034 eV between HOMO at k-point 7 and LUMO at k-point 3
  | This appears to be an indirect band gap.
  | Smallest direct gap :      0.99548065 eV for k_point 3 at    0.000000    0.500000    0.000000 (in units of recip. lattice)
  | Direct gap HOMO spin channel :     2
  | Direct gap LUMO spin channel :     1
  The gap value is above 0.2 eV. Unless you are using a very sparse k-point grid,
  this system is most likely an insulator or a semiconductor.
  Calculating total energy contributions from superposition of free atom densities.

  Total energy components:
  | Sum of eigenvalues            :         -45.93534684 Ha       -1249.96438507 eV
  | XC energy correction          :         -10.83312258 Ha        -294.78426400 eV
  | XC potential correction       :          13.93338521 Ha         379.14670243 eV
  | Free-atom electrostatic energy:         -33.32004492 Ha        -906.68455390 eV
  | Hartree energy correction     :           0.00000000 Ha           0.00000000 eV
  | van der Waals energy corr.    :           0.00000000 Ha           0.00000000 eV
  | Entropy correction            :           0.00000000 Ha           0.00000000 eV
  | ---------------------------
  | Total energy                  :         -76.15512913 Ha       -2072.28650054 eV
  | Total energy, T -> 0          :         -76.15512913 Ha       -2072.28650054 eV  <-- do not rely on this value for anything but (periodic) metals
  | Electronic free energy        :         -76.15512913 Ha       -2072.28650054 eV

  Derived energy quantities:
  | Kinetic energy                :          76.18635948 Ha        2073.13632155 eV
  | Electrostatic energy          :        -141.50836603 Ha       -3850.63855809 eV
  | Energy correction for multipole
  | error in Hartree potential    :           0.00000000 Ha           0.00000000 eV
  | Sum of eigenvalues per atom                           :        -624.98219254 eV
  | Total energy (T->0) per atom                          :       -1036.14325027 eV  <-- do not rely on this value for anything but (periodic) metals
  | Electronic free energy per atom                       :       -1036.14325027 eV
  Initialize hartree_potential_storage
  Max. number of atoms included in rho_multipole:            2

  End scf initialization - timings             :  max(cpu_time)    wall_clock(cpu1)
  | Time for scf. initialization               :        3.068 s           3.138 s
  | Boundary condition initialization          :        0.069 s           0.070 s
  | Integration                                :        2.567 s           2.573 s
  | Solution of K.-S. eqns.                    :        0.024 s           0.083 s
  | Grid partitioning                          :        0.056 s           0.059 s
  | Preloading free-atom quantities on grid    :        0.005 s           0.005 s
  | Free-atom superposition energy             :        0.032 s           0.032 s
  | Total energy evaluation                    :        0.000 s           0.001 s
------------------------------------------------------------

------------------------------------------------------------
          Begin self-consistency iteration #    1

  Date     :  20220221, Time     :  151610.826
------------------------------------------------------------
  Evaluating new KS density using the density matrix
  Evaluating density matrix
  Evaluating density matrix
  Time summed over all CPUs for getting density from density matrix: real work       25.735 s, elapsed       26.434 s
  Integration grid: deviation in total charge (<rho> - N_e) =  -2.405867E-06
  | <rho_up-rho_dn> = N_up-N_dn =     -4.0000; <|rho_up-rho_dn|> =      4.0000
  Pulay mixing of updated and previous charge densities.

  Evaluating partitioned Hartree potential by multipole expansion.
  | Analytical far-field extrapolation by fixed multipoles:
  | Hartree multipole sum: apparent total charge =   0.345211E-03
  Summing up the Hartree potential.
  | Estimated reciprocal-space cutoff momentum G_max:         3.32253784 bohr^-1 .
  | Reciprocal lattice points for long-range Hartree potential:     150
  Time summed over all CPUs for potential: real work        2.077 s, elapsed        2.121 s
  | RMS charge density error from multipole expansion :   0.335840E-02
  | Average real-space part of the electrostatic potential :      0.12596047 eV

  Integrating Hamiltonian matrix: batch-based integration.
  Time summed over all CPUs for integration: real work       13.493 s, elapsed       13.738 s

  Updating Kohn-Sham eigenvalues, eigenvectors, occupation numbers, and Fermi level.
  Solving generalized eigenproblem
  Determining occupation numbers for Kohn-Sham eigenstates.
  | Chemical potential (Fermi level) in eV                 : -.72740353E+01
  | Error in electron count due to remaining E_F inaccuracy: 0.00000000E+00
  | Maximum occupation number of highest empty state:  0.00E+00

  Writing Kohn-Sham eigenvalues.

  Spin-up eigenvalues:
  K-point:       1 at    0.000000    0.000000    0.000000 (in units of recip. lattice)

  State    Occupation    Eigenvalue [Ha]    Eigenvalue [eV]
      1       1.00000         -10.060044         -273.74773
      2       1.00000         -10.059072         -273.72127
      3       1.00000          -1.014249          -27.59912
      4       1.00000          -0.556729          -15.14936
      5       1.00000          -0.418832          -11.39700
      6       1.00000          -0.418829          -11.39692
      7       0.00000          -0.011002           -0.29937
      8       0.00000           0.009026            0.24561
      9       0.00000           0.009032            0.24576
     10       0.00000           0.055376            1.50687
     11       0.00000           0.130710            3.55681

  Spin-down eigenvalues:
  K-point:       1 at    0.000000    0.000000    0.000000 (in units of recip. lattice)

  State    Occupation    Eigenvalue [Ha]    Eigenvalue [eV]
      1       1.00000         -10.040683         -273.22089
      2       1.00000         -10.039732         -273.19500
      3       1.00000          -0.925248          -25.17729
      4       1.00000          -0.475450          -12.93764
      5       1.00000          -0.335207           -9.12144
      6       1.00000          -0.335204           -9.12135
      7       0.00000           0.023913            0.65071
      8       0.00000           0.069768            1.89849
      9       0.00000           0.098272            2.67413
     10       0.00000           0.098277            2.67424
     11       0.00000           0.215221            5.85647

  Current spin moment of the entire structure :
  | N = N_up - N_down (sum over all k points):         0.00000
  | S (sum over all k points)                :         0.00000

  What follows are estimated values for band gap, HOMO, LUMO, etc.
  | They are estimated on a discrete k-point grid and not necessarily exact.
  | For converged numbers, create a DOS and/or band structure plot on a denser k-grid.

  Highest occupied state (VBM) at     -7.72078231 eV (relative to internal zero)
  | Occupation number:      1.00000000
  | K-point:       3 at    0.000000    0.500000    0.000000 (in units of recip. lattice)
  | Spin channel:        2

  Lowest unoccupied state (CBM) at    -5.87135563 eV (relative to internal zero)
  | Occupation number:      0.00000000
  | K-point:       3 at    0.000000    0.500000    0.000000 (in units of recip. lattice)
  | Spin channel:        1

  ESTIMATED overall HOMO-LUMO gap:      1.84942668 eV between HOMO at k-point 3 and LUMO at k-point 3
  | This appears to be a direct band gap.
  The gap value is above 0.2 eV. Unless you are using a very sparse k-point grid,
  this system is most likely an insulator or a semiconductor.

  Total energy components:
  | Sum of eigenvalues            :         -44.91146035 Ha       -1222.10301591 eV
  | XC energy correction          :         -10.83100673 Ha        -294.72668855 eV
  | XC potential correction       :          13.92269941 Ha         378.85592703 eV
  | Free-atom electrostatic energy:         -33.32004492 Ha        -906.68455390 eV
  | Hartree energy correction     :          -1.03601422 Ha         -28.19138134 eV
  | van der Waals energy corr.    :           0.00000000 Ha           0.00000000 eV
  | Entropy correction            :           0.00000000 Ha           0.00000000 eV
  | ---------------------------
  | Total energy                  :         -76.17582680 Ha       -2072.84971268 eV
  | Total energy, T -> 0          :         -76.17582680 Ha       -2072.84971268 eV  <-- do not rely on this value for anything but (periodic) metals
  | Electronic free energy        :         -76.17582680 Ha       -2072.84971268 eV

  Derived energy quantities:
  | Kinetic energy                :          76.29987282 Ha        2076.22517665 eV
  | Electrostatic energy          :        -141.64469290 Ha       -3854.34820078 eV
  | Energy correction for multipole
  | error in Hartree potential    :          -0.00490336 Ha          -0.13342719 eV
  | Sum of eigenvalues per atom                           :        -611.05150796 eV
  | Total energy (T->0) per atom                          :       -1036.42485634 eV  <-- do not rely on this value for anything but (periodic) metals
  | Electronic free energy per atom                       :       -1036.42485634 eV

  Self-consistency convergence accuracy:
  | Change of charge/spin density : 0.2302E+00 0.5200E+00
  | Change of sum of eigenvalues  : 0.2786E+02 eV
  | Change of total energy        : -.5632E+00 eV

  End self-consistency iteration #     1       :  max(cpu_time)    wall_clock(cpu1)
  | Time for this iteration                    :        5.513 s           5.526 s
  | Charge density update                      :        3.306 s           3.314 s
  | Density mixing & preconditioning           :        0.202 s           0.203 s
  | Hartree multipole update                   :        0.002 s           0.001 s
  | Hartree multipole summation                :        0.270 s           0.271 s
  | Integration                                :        1.720 s           1.723 s
  | Solution of K.-S. eqns.                    :        0.011 s           0.011 s
  | Total energy evaluation                    :        0.000 s           0.000 s
------------------------------------------------------------

------------------------------------------------------------
          Begin self-consistency iteration #    2

  Date     :  20220221, Time     :  151616.353
------------------------------------------------------------
  Evaluating new KS density using the density matrix
  Evaluating density matrix
  Evaluating density matrix
  Time summed over all CPUs for getting density from density matrix: real work       25.540 s, elapsed       26.140 s
  Integration grid: deviation in total charge (<rho> - N_e) =   3.452718E-04
  | <rho_up-rho_dn> = N_up-N_dn =     -2.7996; <|rho_up-rho_dn|> =      2.7996
  Pulay mixing of updated and previous charge densities.

  Evaluating partitioned Hartree potential by multipole expansion.
  | Analytical far-field extrapolation by fixed multipoles:
  | Hartree multipole sum: apparent total charge =   0.492985E-03
  Summing up the Hartree potential.
  Time summed over all CPUs for potential: real work        2.143 s, elapsed        2.189 s
  | RMS charge density error from multipole expansion :   0.833495E-02
  | Average real-space part of the electrostatic potential :      0.27193459 eV

  Integrating Hamiltonian matrix: batch-based integration.
  Time summed over all CPUs for integration: real work       13.269 s, elapsed       13.521 s

  Updating Kohn-Sham eigenvalues, eigenvectors, occupation numbers, and Fermi level.
  Solving generalized eigenproblem
  Determining occupation numbers for Kohn-Sham eigenstates.
  | Chemical potential (Fermi level) in eV                 : -.59753158E+01
  | Error in electron count due to remaining E_F inaccuracy: 0.00000000E+00
  | Maximum occupation number of highest empty state:  0.00E+00

  Current spin moment of the entire structure :
  | N = N_up - N_down (sum over all k points):         0.00000
  | S (sum over all k points)                :         0.00000

  What follows are estimated values for band gap, HOMO, LUMO, etc.
  | They are estimated on a discrete k-point grid and not necessarily exact.
  | For converged numbers, create a DOS and/or band structure plot on a denser k-grid.

  Highest occupied state (VBM) at     -7.25061719 eV (relative to internal zero)
  | Occupation number:      1.00000000
  | K-point:       3 at    0.000000    0.500000    0.000000 (in units of recip. lattice)
  | Spin channel:        2

  Lowest unoccupied state (CBM) at    -3.66064270 eV (relative to internal zero)
  | Occupation number:      0.00000000
  | K-point:       3 at    0.000000    0.500000    0.000000 (in units of recip. lattice)
  | Spin channel:        1

  ESTIMATED overall HOMO-LUMO gap:      3.58997448 eV between HOMO at k-point 3 and LUMO at k-point 3
  | This appears to be a direct band gap.
  The gap value is above 0.2 eV. Unless you are using a very sparse k-point grid,
  this system is most likely an insulator or a semiconductor.

  Total energy components:
  | Sum of eigenvalues            :         -43.92447278 Ha       -1195.24571786 eV
  | XC energy correction          :         -10.85177537 Ha        -295.29183202 eV
  | XC potential correction       :          13.94302380 Ha         379.40898173 eV
  | Free-atom electrostatic energy:         -33.32004492 Ha        -906.68455390 eV
  | Hartree energy correction     :          -2.07061877 Ha         -56.34440363 eV
  | van der Waals energy corr.    :           0.00000000 Ha           0.00000000 eV
  | Entropy correction            :           0.00000000 Ha           0.00000000 eV
  | ---------------------------
  | Total energy                  :         -76.22388805 Ha       -2074.15752568 eV
  | Total energy, T -> 0          :         -76.22388805 Ha       -2074.15752568 eV  <-- do not rely on this value for anything but (periodic) metals
  | Electronic free energy        :         -76.22388805 Ha       -2074.15752568 eV

  Derived energy quantities:
  | Kinetic energy                :          76.13882168 Ha        2071.84275198 eV
  | Electrostatic energy          :        -141.51093435 Ha       -3850.70844564 eV
  | Energy correction for multipole
  | error in Hartree potential    :          -0.01158033 Ha          -0.31511679 eV
  | Sum of eigenvalues per atom                           :        -597.62285893 eV
  | Total energy (T->0) per atom                          :       -1037.07876284 eV  <-- do not rely on this value for anything but (periodic) metals
  | Electronic free energy per atom                       :       -1037.07876284 eV

  Self-consistency convergence accuracy:
  | Change of charge/spin density : 0.1241E+00 0.3536E+00
  | Change of sum of eigenvalues  : 0.2686E+02 eV
  | Change of total energy        : -.1308E+01 eV

  End self-consistency iteration #     2       :  max(cpu_time)    wall_clock(cpu1)
  | Time for this iteration                    :        5.454 s           5.469 s
  | Charge density update                      :        3.267 s           3.274 s
  | Density mixing & preconditioning           :        0.203 s           0.206 s
  | Hartree multipole update                   :        0.002 s           0.002 s
  | Hartree multipole summation                :        0.278 s           0.278 s
  | Integration                                :        1.692 s           1.696 s
  | Solution of K.-S. eqns.                    :        0.011 s           0.011 s
  | Total energy evaluation                    :        0.000 s           0.001 s
------------------------------------------------------------

------------------------------------------------------------
          Begin self-consistency iteration #    3

  Date     :  20220221, Time     :  151621.824
------------------------------------------------------------
  Evaluating new KS density using the density matrix
  Evaluating density matrix
  Evaluating density matrix
  Time summed over all CPUs for getting density from density matrix: real work       25.548 s, elapsed       26.138 s
  Integration grid: deviation in total charge (<rho> - N_e) =   4.935811E-04
  | <rho_up-rho_dn> = N_up-N_dn =     -0.4643; <|rho_up-rho_dn|> =      0.4648
  Pulay mixing of updated and previous charge densities.

  Evaluating partitioned Hartree potential by multipole expansion.
  | Analytical far-field extrapolation by fixed multipoles:
  | Hartree multipole sum: apparent total charge =   0.259752E-03
  Summing up the Hartree potential.
  Time summed over all CPUs for potential: real work        2.131 s, elapsed        2.177 s
  | RMS charge density error from multipole expansion :   0.840349E-02
  | Average real-space part of the electrostatic potential :      0.25514979 eV

  Integrating Hamiltonian matrix: batch-based integration.
  Time summed over all CPUs for integration: real work       13.230 s, elapsed       13.468 s

  Updating Kohn-Sham eigenvalues, eigenvectors, occupation numbers, and Fermi level.
  Solving generalized eigenproblem
  Determining occupation numbers for Kohn-Sham eigenstates.
  | Chemical potential (Fermi level) in eV                 : -.58582221E+01
  | Error in electron count due to remaining E_F inaccuracy: 0.00000000E+00
  | Maximum occupation number of highest empty state:  0.00E+00

  Current spin moment of the entire structure :
  | N = N_up - N_down (sum over all k points):         0.00000
  | S (sum over all k points)                :         0.00000

  What follows are estimated values for band gap, HOMO, LUMO, etc.
  | They are estimated on a discrete k-point grid and not necessarily exact.
  | For converged numbers, create a DOS and/or band structure plot on a denser k-grid.

  Highest occupied state (VBM) at     -7.75474799 eV (relative to internal zero)
  | Occupation number:      1.00000000
  | K-point:       7 at    0.500000    0.000000    0.000000 (in units of recip. lattice)
  | Spin channel:        2

  Lowest unoccupied state (CBM) at    -3.79786440 eV (relative to internal zero)
  | Occupation number:      0.00000000
  | K-point:       3 at    0.000000    0.500000    0.000000 (in units of recip. lattice)
  | Spin channel:        1

  ESTIMATED overall HOMO-LUMO gap:      3.95688358 eV between HOMO at k-point 7 and LUMO at k-point 3
  | This appears to be an indirect band gap.
  | Smallest direct gap :      3.95689335 eV for k_point 3 at    0.000000    0.500000    0.000000 (in units of recip. lattice)
  | Direct gap HOMO spin channel :     2
  | Direct gap LUMO spin channel :     1
  The gap value is above 0.2 eV. Unless you are using a very sparse k-point grid,
  this system is most likely an insulator or a semiconductor.

  Total energy components:
  | Sum of eigenvalues            :         -44.18814765 Ha       -1202.42067609 eV
  | XC energy correction          :         -10.82165352 Ha        -294.47217488 eV
  | XC potential correction       :          13.90353428 Ha         378.33441715 eV
  | Free-atom electrostatic energy:         -33.32004492 Ha        -906.68455390 eV
  | Hartree energy correction     :          -1.79990153 Ha         -48.97781266 eV
  | van der Waals energy corr.    :           0.00000000 Ha           0.00000000 eV
  | Entropy correction            :           0.00000000 Ha           0.00000000 eV
  | ---------------------------
  | Total energy                  :         -76.22621335 Ha       -2074.22080037 eV
  | Total energy, T -> 0          :         -76.22621335 Ha       -2074.22080037 eV  <-- do not rely on this value for anything but (periodic) metals
  | Electronic free energy        :         -76.22621335 Ha       -2074.22080037 eV

  Derived energy quantities:
  | Kinetic energy                :          75.97108577 Ha        2067.27842590 eV
  | Electrostatic energy          :        -141.37564560 Ha       -3847.02705140 eV
  | Energy correction for multipole
  | error in Hartree potential    :          -0.01163241 Ha          -0.31653401 eV
  | Sum of eigenvalues per atom                           :        -601.21033804 eV
  | Total energy (T->0) per atom                          :       -1037.11040019 eV  <-- do not rely on this value for anything but (periodic) metals
  | Electronic free energy per atom                       :       -1037.11040019 eV

  Self-consistency convergence accuracy:
  | Change of charge/spin density : 0.3576E-01 0.5270E-01
  | Change of sum of eigenvalues  : -.7175E+01 eV
  | Change of total energy        : -.6327E-01 eV

  End self-consistency iteration #     3       :  max(cpu_time)    wall_clock(cpu1)
  | Time for this iteration                    :        5.439 s           5.452 s
  | Charge density update                      :        3.267 s           3.274 s
  | Density mixing & preconditioning           :        0.199 s           0.200 s
  | Hartree multipole update                   :        0.002 s           0.002 s
  | Hartree multipole summation                :        0.276 s           0.277 s
  | Integration                                :        1.683 s           1.687 s
  | Solution of K.-S. eqns.                    :        0.010 s           0.010 s
  | Total energy evaluation                    :        0.000 s           0.001 s
------------------------------------------------------------

------------------------------------------------------------
          Begin self-consistency iteration #    4

  Date     :  20220221, Time     :  151627.279
------------------------------------------------------------
  Evaluating new KS density using the density matrix
  Evaluating density matrix
  Evaluating density matrix
  Time summed over all CPUs for getting density from density matrix: real work       25.530 s, elapsed       26.110 s
  Integration grid: deviation in total charge (<rho> - N_e) =   2.603271E-04
  | <rho_up-rho_dn> = N_up-N_dn =     -0.1177; <|rho_up-rho_dn|> =      0.1290
  Pulay mixing of updated and previous charge densities.

  Evaluating partitioned Hartree potential by multipole expansion.
  | Analytical far-field extrapolation by fixed multipoles:
  | Hartree multipole sum: apparent total charge =   0.403374E-03
  Summing up the Hartree potential.
  Time summed over all CPUs for potential: real work        2.136 s, elapsed        2.183 s
  | RMS charge density error from multipole expansion :   0.824823E-02
  | Average real-space part of the electrostatic potential :      0.24537470 eV

  Integrating Hamiltonian matrix: batch-based integration.
  Time summed over all CPUs for integration: real work       13.331 s, elapsed       13.579 s

  Updating Kohn-Sham eigenvalues, eigenvectors, occupation numbers, and Fermi level.
  Solving generalized eigenproblem
  Determining occupation numbers for Kohn-Sham eigenstates.
  | Chemical potential (Fermi level) in eV                 : -.59071202E+01
  | Error in electron count due to remaining E_F inaccuracy: 0.00000000E+00
  | Maximum occupation number of highest empty state:  0.00E+00

  Current spin moment of the entire structure :
  | N = N_up - N_down (sum over all k points):         0.00000
  | S (sum over all k points)                :         0.00000

  What follows are estimated values for band gap, HOMO, LUMO, etc.
  | They are estimated on a discrete k-point grid and not necessarily exact.
  | For converged numbers, create a DOS and/or band structure plot on a denser k-grid.

  Highest occupied state (VBM) at     -7.89430517 eV (relative to internal zero)
  | Occupation number:      1.00000000
  | K-point:       7 at    0.500000    0.000000    0.000000 (in units of recip. lattice)
  | Spin channel:        1

  Lowest unoccupied state (CBM) at    -3.82890167 eV (relative to internal zero)
  | Occupation number:      0.00000000
  | K-point:       3 at    0.000000    0.500000    0.000000 (in units of recip. lattice)
  | Spin channel:        1

  ESTIMATED overall HOMO-LUMO gap:      4.06540350 eV between HOMO at k-point 7 and LUMO at k-point 3
  | This appears to be an indirect band gap.
  | Smallest direct gap :      4.06541368 eV for k_point 3 at    0.000000    0.500000    0.000000 (in units of recip. lattice)
  | Direct gap HOMO spin channel :     1
  | Direct gap LUMO spin channel :     1
  The gap value is above 0.2 eV. Unless you are using a very sparse k-point grid,
  this system is most likely an insulator or a semiconductor.

  Total energy components:
  | Sum of eigenvalues            :         -44.26022586 Ha       -1204.38202399 eV
  | XC energy correction          :         -10.81472991 Ha        -294.28377391 eV
  | XC potential correction       :          13.89463188 Ha         378.09217046 eV
  | Free-atom electrostatic energy:         -33.32004492 Ha        -906.68455390 eV
  | Hartree energy correction     :          -1.72609707 Ha         -46.96949105 eV
  | van der Waals energy corr.    :           0.00000000 Ha           0.00000000 eV
  | Entropy correction            :           0.00000000 Ha           0.00000000 eV
  | ---------------------------
  | Total energy                  :         -76.22646589 Ha       -2074.22767239 eV
  | Total energy, T -> 0          :         -76.22646589 Ha       -2074.22767239 eV  <-- do not rely on this value for anything but (periodic) metals
  | Electronic free energy        :         -76.22646589 Ha       -2074.22767239 eV

  Derived energy quantities:
  | Kinetic energy                :          75.95134239 Ha        2066.74118104 eV
  | Electrostatic energy          :        -141.36307837 Ha       -3846.68507952 eV
  | Energy correction for multipole
  | error in Hartree potential    :          -0.01148457 Ha          -0.31251099 eV
  | Sum of eigenvalues per atom                           :        -602.19101200 eV
  | Total energy (T->0) per atom                          :       -1037.11383620 eV  <-- do not rely on this value for anything but (periodic) metals
  | Electronic free energy per atom                       :       -1037.11383620 eV

  Self-consistency convergence accuracy:
  | Change of charge/spin density : 0.1028E-01 0.1555E-01
  | Change of sum of eigenvalues  : -.1961E+01 eV
  | Change of total energy        : -.6872E-02 eV

  End self-consistency iteration #     4       :  max(cpu_time)    wall_clock(cpu1)
  | Time for this iteration                    :        5.456 s           5.467 s
  | Charge density update                      :        3.264 s           3.270 s
  | Density mixing & preconditioning           :        0.200 s           0.201 s
  | Hartree multipole update                   :        0.002 s           0.002 s
  | Hartree multipole summation                :        0.277 s           0.278 s
  | Integration                                :        1.700 s           1.704 s
  | Solution of K.-S. eqns.                    :        0.011 s           0.011 s
  | Total energy evaluation                    :        0.000 s           0.000 s
------------------------------------------------------------

------------------------------------------------------------
          Begin self-consistency iteration #    5

  Date     :  20220221, Time     :  151632.749
------------------------------------------------------------
  Evaluating new KS density using the density matrix
  Evaluating density matrix
  Evaluating density matrix
  Time summed over all CPUs for getting density from density matrix: real work       25.475 s, elapsed       26.072 s
  Integration grid: deviation in total charge (<rho> - N_e) =   4.039263E-04
  | <rho_up-rho_dn> = N_up-N_dn =     -0.0116; <|rho_up-rho_dn|> =      0.0181
  Pulay mixing of updated and previous charge densities.

  Evaluating partitioned Hartree potential by multipole expansion.
  | Analytical far-field extrapolation by fixed multipoles:
  | Hartree multipole sum: apparent total charge =   0.308268E-03
  Summing up the Hartree potential.
  Time summed over all CPUs for potential: real work        2.131 s, elapsed        2.177 s
  | RMS charge density error from multipole expansion :   0.819308E-02
  | Average real-space part of the electrostatic potential :      0.24632592 eV

  Integrating Hamiltonian matrix: batch-based integration.
  Time summed over all CPUs for integration: real work       13.240 s, elapsed       13.488 s

  Updating Kohn-Sham eigenvalues, eigenvectors, occupation numbers, and Fermi level.
  Solving generalized eigenproblem
  Determining occupation numbers for Kohn-Sham eigenstates.
  | Chemical potential (Fermi level) in eV                 : -.59126257E+01
  | Error in electron count due to remaining E_F inaccuracy: 0.00000000E+00
  | Maximum occupation number of highest empty state:  0.00E+00

  Current spin moment of the entire structure :
  | N = N_up - N_down (sum over all k points):         0.00000
  | S (sum over all k points)                :         0.00000

  What follows are estimated values for band gap, HOMO, LUMO, etc.
  | They are estimated on a discrete k-point grid and not necessarily exact.
  | For converged numbers, create a DOS and/or band structure plot on a denser k-grid.

  Highest occupied state (VBM) at     -7.83737718 eV (relative to internal zero)
  | Occupation number:      1.00000000
  | K-point:       7 at    0.500000    0.000000    0.000000 (in units of recip. lattice)
  | Spin channel:        2

  Lowest unoccupied state (CBM) at    -3.77433805 eV (relative to internal zero)
  | Occupation number:      0.00000000
  | K-point:       3 at    0.000000    0.500000    0.000000 (in units of recip. lattice)
  | Spin channel:        1

  ESTIMATED overall HOMO-LUMO gap:      4.06303913 eV between HOMO at k-point 7 and LUMO at k-point 3
  | This appears to be an indirect band gap.
  | Smallest direct gap :      4.06305031 eV for k_point 3 at    0.000000    0.500000    0.000000 (in units of recip. lattice)
  | Direct gap HOMO spin channel :     2
  | Direct gap LUMO spin channel :     1
  The gap value is above 0.2 eV. Unless you are using a very sparse k-point grid,
  this system is most likely an insulator or a semiconductor.

  Total energy components:
  | Sum of eigenvalues            :         -44.21992277 Ha       -1203.28532109 eV
  | XC energy correction          :         -10.81872319 Ha        -294.39243648 eV
  | XC potential correction       :          13.89968531 Ha         378.22968141 eV
  | Free-atom electrostatic energy:         -33.32004492 Ha        -906.68455390 eV
  | Hartree energy correction     :          -1.76745621 Ha         -48.09493047 eV
  | van der Waals energy corr.    :           0.00000000 Ha           0.00000000 eV
  | Entropy correction            :           0.00000000 Ha           0.00000000 eV
  | ---------------------------
  | Total energy                  :         -76.22646178 Ha       -2074.22756054 eV
  | Total energy, T -> 0          :         -76.22646178 Ha       -2074.22756054 eV  <-- do not rely on this value for anything but (periodic) metals
  | Electronic free energy        :         -76.22646178 Ha       -2074.22756054 eV

  Derived energy quantities:
  | Kinetic energy                :          75.98295614 Ha        2067.60143490 eV
  | Electrostatic energy          :        -141.39069473 Ha       -3847.43655895 eV
  | Energy correction for multipole
  | error in Hartree potential    :          -0.01145591 Ha          -0.31173127 eV
  | Sum of eigenvalues per atom                           :        -601.64266054 eV
  | Total energy (T->0) per atom                          :       -1037.11378027 eV  <-- do not rely on this value for anything but (periodic) metals
  | Electronic free energy per atom                       :       -1037.11378027 eV

  Self-consistency convergence accuracy:
  | Change of charge/spin density : 0.3534E-02 0.2178E-02
  | Change of sum of eigenvalues  : 0.1097E+01 eV
  | Change of total energy        : 0.1119E-03 eV

  End self-consistency iteration #     5       :  max(cpu_time)    wall_clock(cpu1)
  | Time for this iteration                    :        5.431 s           5.443 s
  | Charge density update                      :        3.259 s           3.266 s
  | Density mixing & preconditioning           :        0.197 s           0.197 s
  | Hartree multipole update                   :        0.001 s           0.001 s
  | Hartree multipole summation                :        0.276 s           0.277 s
  | Integration                                :        1.686 s           1.690 s
  | Solution of K.-S. eqns.                    :        0.010 s           0.010 s
  | Total energy evaluation                    :        0.000 s           0.001 s
------------------------------------------------------------

------------------------------------------------------------
          Begin self-consistency iteration #    6

  Date     :  20220221, Time     :  151638.196
------------------------------------------------------------
  Evaluating new KS density using the density matrix
  Evaluating density matrix
  Evaluating density matrix
  Time summed over all CPUs for getting density from density matrix: real work       25.467 s, elapsed       26.060 s
  Integration grid: deviation in total charge (<rho> - N_e) =   3.088172E-04
  | <rho_up-rho_dn> = N_up-N_dn =     -0.0031; <|rho_up-rho_dn|> =      0.0042
  Pulay mixing of updated and previous charge densities.

  Evaluating partitioned Hartree potential by multipole expansion.
  | Analytical far-field extrapolation by fixed multipoles:
  | Hartree multipole sum: apparent total charge =   0.237179E-03
  Summing up the Hartree potential.
  Time summed over all CPUs for potential: real work        2.134 s, elapsed        2.179 s
  | RMS charge density error from multipole expansion :   0.818737E-02
  | Average real-space part of the electrostatic potential :      0.24667302 eV

  Integrating Hamiltonian matrix: batch-based integration.
  Time summed over all CPUs for integration: real work       13.308 s, elapsed       13.560 s

  Updating Kohn-Sham eigenvalues, eigenvectors, occupation numbers, and Fermi level.
  Solving generalized eigenproblem
  Determining occupation numbers for Kohn-Sham eigenstates.
  | Chemical potential (Fermi level) in eV                 : -.59112792E+01
  | Error in electron count due to remaining E_F inaccuracy: 0.00000000E+00
  | Maximum occupation number of highest empty state:  0.00E+00

  Current spin moment of the entire structure :
  | N = N_up - N_down (sum over all k points):         0.00000
  | S (sum over all k points)                :         0.00000

  What follows are estimated values for band gap, HOMO, LUMO, etc.
  | They are estimated on a discrete k-point grid and not necessarily exact.
  | For converged numbers, create a DOS and/or band structure plot on a denser k-grid.

  Highest occupied state (VBM) at     -7.83321331 eV (relative to internal zero)
  | Occupation number:      1.00000000
  | K-point:       7 at    0.500000    0.000000    0.000000 (in units of recip. lattice)
  | Spin channel:        2

  Lowest unoccupied state (CBM) at    -3.76870325 eV (relative to internal zero)
  | Occupation number:      0.00000000
  | K-point:       3 at    0.000000    0.500000    0.000000 (in units of recip. lattice)
  | Spin channel:        1

  ESTIMATED overall HOMO-LUMO gap:      4.06451006 eV between HOMO at k-point 7 and LUMO at k-point 3
  | This appears to be an indirect band gap.
  | Smallest direct gap :      4.06452101 eV for k_point 3 at    0.000000    0.500000    0.000000 (in units of recip. lattice)
  | Direct gap HOMO spin channel :     2
  | Direct gap LUMO spin channel :     1
  The gap value is above 0.2 eV. Unless you are using a very sparse k-point grid,
  this system is most likely an insulator or a semiconductor.

  Total energy components:
  | Sum of eigenvalues            :         -44.21636480 Ha       -1203.18850375 eV
  | XC energy correction          :         -10.81908537 Ha        -294.40229202 eV
  | XC potential correction       :          13.90014768 Ha         378.24226300 eV
  | Free-atom electrostatic energy:         -33.32004492 Ha        -906.68455390 eV
  | Hartree energy correction     :          -1.77111397 Ha         -48.19446333 eV
  | van der Waals energy corr.    :           0.00000000 Ha           0.00000000 eV
  | Entropy correction            :           0.00000000 Ha           0.00000000 eV
  | ---------------------------
  | Total energy                  :         -76.22646139 Ha       -2074.22755000 eV
  | Total energy, T -> 0          :         -76.22646139 Ha       -2074.22755000 eV  <-- do not rely on this value for anything but (periodic) metals
  | Electronic free energy        :         -76.22646139 Ha       -2074.22755000 eV

  Derived energy quantities:
  | Kinetic energy                :          75.98562344 Ha        2067.67401581 eV
  | Electrostatic energy          :        -141.39299946 Ha       -3847.49927379 eV
  | Energy correction for multipole
  | error in Hartree potential    :          -0.01145533 Ha          -0.31171537 eV
  | Sum of eigenvalues per atom                           :        -601.59425187 eV
  | Total energy (T->0) per atom                          :       -1037.11377500 eV  <-- do not rely on this value for anything but (periodic) metals
  | Electronic free energy per atom                       :       -1037.11377500 eV

  Self-consistency convergence accuracy:
  | Change of charge/spin density : 0.2996E-03 0.3882E-03
  | Change of sum of eigenvalues  : 0.9682E-01 eV
  | Change of total energy        : 0.1054E-04 eV

  End self-consistency iteration #     6       :  max(cpu_time)    wall_clock(cpu1)
  | Time for this iteration                    :        5.448 s           5.457 s
  | Charge density update                      :        3.259 s           3.263 s
  | Density mixing & preconditioning           :        0.204 s           0.204 s
  | Hartree multipole update                   :        0.001 s           0.002 s
  | Hartree multipole summation                :        0.276 s           0.277 s
  | Integration                                :        1.695 s           1.699 s
  | Solution of K.-S. eqns.                    :        0.010 s           0.011 s
  | Total energy evaluation                    :        0.000 s           0.001 s
------------------------------------------------------------

------------------------------------------------------------
          Begin self-consistency iteration #    7

  Date     :  20220221, Time     :  151643.659
------------------------------------------------------------
  Evaluating new KS density using the density matrix
  Evaluating density matrix
  Evaluating density matrix
  Time summed over all CPUs for getting density from density matrix: real work       25.432 s, elapsed       26.026 s
  Integration grid: deviation in total charge (<rho> - N_e) =   2.377285E-04
  | <rho_up-rho_dn> = N_up-N_dn =     -0.0003; <|rho_up-rho_dn|> =      0.0009
  Pulay mixing of updated and previous charge densities.

  Evaluating partitioned Hartree potential by multipole expansion.
  | Analytical far-field extrapolation by fixed multipoles:
  | Hartree multipole sum: apparent total charge =   0.230453E-03
  Summing up the Hartree potential.
  Time summed over all CPUs for potential: real work        2.143 s, elapsed        2.189 s
  | RMS charge density error from multipole expansion :   0.818705E-02
  | Average real-space part of the electrostatic potential :      0.24668660 eV

  Integrating Hamiltonian matrix: batch-based integration.
  Time summed over all CPUs for integration: real work       13.147 s, elapsed       13.397 s

  Updating Kohn-Sham eigenvalues, eigenvectors, occupation numbers, and Fermi level.
  Solving generalized eigenproblem
  Determining occupation numbers for Kohn-Sham eigenstates.
  | Chemical potential (Fermi level) in eV                 : -.59117063E+01
  | Error in electron count due to remaining E_F inaccuracy: 0.00000000E+00
  | Maximum occupation number of highest empty state:  0.00E+00

  Current spin moment of the entire structure :
  | N = N_up - N_down (sum over all k points):         0.00000
  | S (sum over all k points)                :         0.00000

  What follows are estimated values for band gap, HOMO, LUMO, etc.
  | They are estimated on a discrete k-point grid and not necessarily exact.
  | For converged numbers, create a DOS and/or band structure plot on a denser k-grid.

  Highest occupied state (VBM) at     -7.83325364 eV (relative to internal zero)
  | Occupation number:      1.00000000
  | K-point:       7 at    0.500000    0.000000    0.000000 (in units of recip. lattice)
  | Spin channel:        2

  Lowest unoccupied state (CBM) at    -3.76872001 eV (relative to internal zero)
  | Occupation number:      0.00000000
  | K-point:       3 at    0.000000    0.500000    0.000000 (in units of recip. lattice)
  | Spin channel:        1

  ESTIMATED overall HOMO-LUMO gap:      4.06453363 eV between HOMO at k-point 7 and LUMO at k-point 3
  | This appears to be an indirect band gap.
  | Smallest direct gap :      4.06454455 eV for k_point 3 at    0.000000    0.500000    0.000000 (in units of recip. lattice)
  | Direct gap HOMO spin channel :     2
  | Direct gap LUMO spin channel :     1
  The gap value is above 0.2 eV. Unless you are using a very sparse k-point grid,
  this system is most likely an insulator or a semiconductor.

  Total energy components:
  | Sum of eigenvalues            :         -44.21638261 Ha       -1203.18898849 eV
  | XC energy correction          :         -10.81908498 Ha        -294.40228123 eV
  | XC potential correction       :          13.90014740 Ha         378.24225559 eV
  | Free-atom electrostatic energy:         -33.32004492 Ha        -906.68455390 eV
  | Hartree energy correction     :          -1.77109657 Ha         -48.19398963 eV
  | van der Waals energy corr.    :           0.00000000 Ha           0.00000000 eV
  | Entropy correction            :           0.00000000 Ha           0.00000000 eV
  | ---------------------------
  | Total energy                  :         -76.22646167 Ha       -2074.22755767 eV
  | Total energy, T -> 0          :         -76.22646167 Ha       -2074.22755767 eV  <-- do not rely on this value for anything but (periodic) metals
  | Electronic free energy        :         -76.22646167 Ha       -2074.22755767 eV

  Derived energy quantities:
  | Kinetic energy                :          75.98563658 Ha        2067.67437355 eV
  | Electrostatic energy          :        -141.39301328 Ha       -3847.49964998 eV
  | Energy correction for multipole
  | error in Hartree potential    :          -0.01145504 Ha          -0.31170763 eV
  | Sum of eigenvalues per atom                           :        -601.59449424 eV
  | Total energy (T->0) per atom                          :       -1037.11377883 eV  <-- do not rely on this value for anything but (periodic) metals
  | Electronic free energy per atom                       :       -1037.11377883 eV

  Self-consistency convergence accuracy:
  | Change of charge/spin density : 0.1109E-02 0.9798E-04
  | Change of sum of eigenvalues  : -.4847E-03 eV
  | Change of total energy        : -.7666E-05 eV

  End self-consistency iteration #     7       :  max(cpu_time)    wall_clock(cpu1)
  | Time for this iteration                    :        5.426 s           5.438 s
  | Charge density update                      :        3.253 s           3.260 s
  | Density mixing & preconditioning           :        0.204 s           0.204 s
  | Hartree multipole update                   :        0.001 s           0.002 s
  | Hartree multipole summation                :        0.278 s           0.278 s
  | Integration                                :        1.677 s           1.681 s
  | Solution of K.-S. eqns.                    :        0.011 s           0.011 s
  | Total energy evaluation                    :        0.000 s           0.001 s
------------------------------------------------------------

------------------------------------------------------------
          Begin self-consistency iteration #    8

  Date     :  20220221, Time     :  151649.100
------------------------------------------------------------
  Evaluating new KS density using the density matrix
  Evaluating density matrix
  Evaluating density matrix
  Time summed over all CPUs for getting density from density matrix: real work       25.423 s, elapsed       26.010 s
  Integration grid: deviation in total charge (<rho> - N_e) =   2.310026E-04
  | <rho_up-rho_dn> = N_up-N_dn =     -0.0003; <|rho_up-rho_dn|> =      0.0008
  Pulay mixing of updated and previous charge densities.

  Evaluating partitioned Hartree potential by multipole expansion.
  | Analytical far-field extrapolation by fixed multipoles:
  | Hartree multipole sum: apparent total charge =   0.132993E-03
  Summing up the Hartree potential.
  Time summed over all CPUs for potential: real work        2.134 s, elapsed        2.180 s
  | RMS charge density error from multipole expansion :   0.818284E-02
  | Average real-space part of the electrostatic potential :      0.24687665 eV

  Integrating Hamiltonian matrix: batch-based integration.
  Time summed over all CPUs for integration: real work       13.371 s, elapsed       13.642 s

  Updating Kohn-Sham eigenvalues, eigenvectors, occupation numbers, and Fermi level.
  Solving generalized eigenproblem
  Determining occupation numbers for Kohn-Sham eigenstates.
  | Chemical potential (Fermi level) in eV                 : -.58775014E+01
  | Error in electron count due to remaining E_F inaccuracy: 0.00000000E+00
  | Maximum occupation number of highest empty state:  0.00E+00

  Current spin moment of the entire structure :
  | N = N_up - N_down (sum over all k points):         0.00000
  | S (sum over all k points)                :         0.00000

  What follows are estimated values for band gap, HOMO, LUMO, etc.
  | They are estimated on a discrete k-point grid and not necessarily exact.
  | For converged numbers, create a DOS and/or band structure plot on a denser k-grid.

  Highest occupied state (VBM) at     -7.83387948 eV (relative to internal zero)
  | Occupation number:      1.00000000
  | K-point:       7 at    0.500000    0.000000    0.000000 (in units of recip. lattice)
  | Spin channel:        2

  Lowest unoccupied state (CBM) at    -3.76900945 eV (relative to internal zero)
  | Occupation number:      0.00000000
  | K-point:       3 at    0.000000    0.500000    0.000000 (in units of recip. lattice)
  | Spin channel:        1

  ESTIMATED overall HOMO-LUMO gap:      4.06487004 eV between HOMO at k-point 7 and LUMO at k-point 3
  | This appears to be an indirect band gap.
  | Smallest direct gap :      4.06488098 eV for k_point 3 at    0.000000    0.500000    0.000000 (in units of recip. lattice)
  | Direct gap HOMO spin channel :     2
  | Direct gap LUMO spin channel :     1
  The gap value is above 0.2 eV. Unless you are using a very sparse k-point grid,
  this system is most likely an insulator or a semiconductor.

  Total energy components:
  | Sum of eigenvalues            :         -44.21678933 Ha       -1203.20005590 eV
  | XC energy correction          :         -10.81906293 Ha        -294.40168137 eV
  | XC potential correction       :          13.90012267 Ha         378.24158254 eV
  | Free-atom electrostatic energy:         -33.32004492 Ha        -906.68455390 eV
  | Hartree energy correction     :          -1.77068676 Ha         -48.18283821 eV
  | van der Waals energy corr.    :           0.00000000 Ha           0.00000000 eV
  | Entropy correction            :           0.00000000 Ha           0.00000000 eV
  | ---------------------------
  | Total energy                  :         -76.22646128 Ha       -2074.22754685 eV
  | Total energy, T -> 0          :         -76.22646128 Ha       -2074.22754685 eV  <-- do not rely on this value for anything but (periodic) metals
  | Electronic free energy        :         -76.22646128 Ha       -2074.22754685 eV

  Derived energy quantities:
  | Kinetic energy                :          75.98567102 Ha        2067.67531049 eV
  | Electrostatic energy          :        -141.39306936 Ha       -3847.50117597 eV
  | Energy correction for multipole
  | error in Hartree potential    :          -0.01145072 Ha          -0.31159000 eV
  | Sum of eigenvalues per atom                           :        -601.60002795 eV
  | Total energy (T->0) per atom                          :       -1037.11377343 eV  <-- do not rely on this value for anything but (periodic) metals
  | Electronic free energy per atom                       :       -1037.11377343 eV

  Self-consistency convergence accuracy:
  | Change of charge/spin density : 0.2246E-02 0.9144E-04
  | Change of sum of eigenvalues  : -.1107E-01 eV
  | Change of total energy        : 0.1081E-04 eV

  End self-consistency iteration #     8       :  max(cpu_time)    wall_clock(cpu1)
  | Time for this iteration                    :        5.451 s           5.463 s
  | Charge density update                      :        3.251 s           3.258 s
  | Density mixing & preconditioning           :        0.204 s           0.205 s
  | Hartree multipole update                   :        0.002 s           0.001 s
  | Hartree multipole summation                :        0.277 s           0.278 s
  | Integration                                :        1.705 s           1.709 s
  | Solution of K.-S. eqns.                    :        0.010 s           0.011 s
  | Total energy evaluation                    :        0.000 s           0.001 s
------------------------------------------------------------

------------------------------------------------------------
          Begin self-consistency iteration #    9

  Date     :  20220221, Time     :  151654.569
------------------------------------------------------------
  Evaluating new KS density using the density matrix
  Evaluating density matrix
  Evaluating density matrix
  Time summed over all CPUs for getting density from density matrix: real work       25.506 s, elapsed       26.099 s
  Integration grid: deviation in total charge (<rho> - N_e) =   1.335418E-04
  | <rho_up-rho_dn> = N_up-N_dn =     -0.0000; <|rho_up-rho_dn|> =      0.0002
  Pulay mixing of updated and previous charge densities.

  Evaluating partitioned Hartree potential by multipole expansion.
  | Analytical far-field extrapolation by fixed multipoles:
[...]
  this system is most likely an insulator or a semiconductor.

  Total energy components:
  | Sum of eigenvalues            :         -44.21656184 Ha       -1203.19386553 eV
  | XC energy correction          :         -10.81909695 Ha        -294.40260703 eV
  | XC potential correction       :          13.90017019 Ha         378.24287554 eV
  | Free-atom electrostatic energy:         -33.32004492 Ha        -906.68455390 eV
  | Hartree energy correction     :          -1.77092764 Ha         -48.18939288 eV
  | van der Waals energy corr.    :           0.00000000 Ha           0.00000000 eV
  | Entropy correction            :           0.00000000 Ha           0.00000000 eV
  | ---------------------------
  | Total energy                  :         -76.22646116 Ha       -2074.22754380 eV
  | Total energy, T -> 0          :         -76.22646116 Ha       -2074.22754380 eV  <-- do not rely on this value for anything but (periodic) metals
  | Electronic free energy        :         -76.22646116 Ha       -2074.22754380 eV

  Derived energy quantities:
  | Kinetic energy                :          75.98571026 Ha        2067.67637835 eV
  | Electrostatic energy          :        -141.39307447 Ha       -3847.50131512 eV
  | Energy correction for multipole
  | error in Hartree potential    :          -0.01144721 Ha          -0.31149437 eV
  | Sum of eigenvalues per atom                           :        -601.59693276 eV
  | Total energy (T->0) per atom                          :       -1037.11377190 eV  <-- do not rely on this value for anything but (periodic) metals
  | Electronic free energy per atom                       :       -1037.11377190 eV

  Self-consistency convergence accuracy:
  | Change of charge/spin density : 0.5857E-06 0.2255E-06
  | Change of sum of eigenvalues  : -.1397E-03 eV
  | Change of total energy        : 0.5074E-07 eV

  End self-consistency iteration #    13       :  max(cpu_time)    wall_clock(cpu1)
  | Time for this iteration                    :        5.451 s           5.464 s
  | Charge density update                      :        3.253 s           3.260 s
  | Density mixing & preconditioning           :        0.204 s           0.205 s
  | Hartree multipole update                   :        0.002 s           0.002 s
  | Hartree multipole summation                :        0.277 s           0.278 s
  | Integration                                :        1.703 s           1.707 s
  | Solution of K.-S. eqns.                    :        0.010 s           0.010 s
  | Total energy evaluation                    :        0.000 s           0.000 s
------------------------------------------------------------

------------------------------------------------------------
          Begin self-consistency iteration #   14

  Date     :  20220221, Time     :  151721.889
------------------------------------------------------------
  Evaluating new KS density using the density matrix
  Evaluating density matrix
  Evaluating density matrix
  Time summed over all CPUs for getting density from density matrix: real work       25.471 s, elapsed       26.086 s
  Integration grid: deviation in total charge (<rho> - N_e) =  -2.028603E-07
  | <rho_up-rho_dn> = N_up-N_dn =     -0.0000; <|rho_up-rho_dn|> =      0.0000
  Pulay mixing of updated and previous charge densities.

  Evaluating partitioned Hartree potential by multipole expansion.
  | Analytical far-field extrapolation by fixed multipoles:
  | Hartree multipole sum: apparent total charge =  -0.698839E-06
  Summing up the Hartree potential.
  Time summed over all CPUs for potential: real work        2.131 s, elapsed        2.178 s
  | RMS charge density error from multipole expansion :   0.818048E-02
  | Average real-space part of the electrostatic potential :      0.24721362 eV

  Integrating Hamiltonian matrix: batch-based integration.
  Time summed over all CPUs for integration: real work       13.319 s, elapsed       13.565 s

  Updating Kohn-Sham eigenvalues, eigenvectors, occupation numbers, and Fermi level.
  Solving generalized eigenproblem
  Determining occupation numbers for Kohn-Sham eigenstates.
  | Chemical potential (Fermi level) in eV                 : -.58686070E+01
  | Error in electron count due to remaining E_F inaccuracy: 0.00000000E+00
  | Maximum occupation number of highest empty state:  0.00E+00

  Current spin moment of the entire structure :
  | N = N_up - N_down (sum over all k points):         0.00000
  | S (sum over all k points)                :         0.00000

  What follows are estimated values for band gap, HOMO, LUMO, etc.
  | They are estimated on a discrete k-point grid and not necessarily exact.
  | For converged numbers, create a DOS and/or band structure plot on a denser k-grid.

  Highest occupied state (VBM) at     -7.83349974 eV (relative to internal zero)
  | Occupation number:      1.00000000
  | K-point:       7 at    0.500000    0.000000    0.000000 (in units of recip. lattice)
  | Spin channel:        2

  Lowest unoccupied state (CBM) at    -3.76863707 eV (relative to internal zero)
  | Occupation number:      0.00000000
  | K-point:       3 at    0.000000    0.500000    0.000000 (in units of recip. lattice)
  | Spin channel:        1

  ESTIMATED overall HOMO-LUMO gap:      4.06486267 eV between HOMO at k-point 7 and LUMO at k-point 3
  | This appears to be an indirect band gap.
  | Smallest direct gap :      4.06487359 eV for k_point 3 at    0.000000    0.500000    0.000000 (in units of recip. lattice)
  | Direct gap HOMO spin channel :     2
  | Direct gap LUMO spin channel :     1
  The gap value is above 0.2 eV. Unless you are using a very sparse k-point grid,
  this system is most likely an insulator or a semiconductor.

  Total energy components:
  | Sum of eigenvalues            :         -44.21656203 Ha       -1203.19387077 eV
  | XC energy correction          :         -10.81909692 Ha        -294.40260624 eV
  | XC potential correction       :          13.90017015 Ha         378.24287455 eV
  | Free-atom electrostatic energy:         -33.32004492 Ha        -906.68455390 eV
  | Hartree energy correction     :          -1.77092744 Ha         -48.18938744 eV
  | van der Waals energy corr.    :           0.00000000 Ha           0.00000000 eV
  | Entropy correction            :           0.00000000 Ha           0.00000000 eV
  | ---------------------------
  | Total energy                  :         -76.22646116 Ha       -2074.22754380 eV
  | Total energy, T -> 0          :         -76.22646116 Ha       -2074.22754380 eV  <-- do not rely on this value for anything but (periodic) metals
  | Electronic free energy        :         -76.22646116 Ha       -2074.22754380 eV

  Derived energy quantities:
  | Kinetic energy                :          75.98571022 Ha        2067.67637727 eV
  | Electrostatic energy          :        -141.39307446 Ha       -3847.50131484 eV
  | Energy correction for multipole
  | error in Hartree potential    :          -0.01144721 Ha          -0.31149433 eV
  | Sum of eigenvalues per atom                           :        -601.59693539 eV
  | Total energy (T->0) per atom                          :       -1037.11377190 eV  <-- do not rely on this value for anything but (periodic) metals
  | Electronic free energy per atom                       :       -1037.11377190 eV

  Self-consistency convergence accuracy:
  | Change of charge/spin density : 0.7406E-07 0.1447E-06
  | Change of sum of eigenvalues  : -.5246E-05 eV
  | Change of total energy        : 0.6319E-09 eV

  Preliminary charge convergence reached. Turning off preconditioner.

  Writing Kohn-Sham eigenvalues.

  Spin-up eigenvalues:
  K-point:       1 at    0.000000    0.000000    0.000000 (in units of recip. lattice)

  State    Occupation    Eigenvalue [Ha]    Eigenvalue [eV]
      1       1.00000          -9.978539         -271.52985
      2       1.00000          -9.977576         -271.50366
      3       1.00000          -0.920202          -25.03997
      4       1.00000          -0.482386          -13.12639
      5       1.00000          -0.312818           -8.51220
      6       1.00000          -0.312815           -8.51212
      7       0.00000           0.020099            0.54693
      8       0.00000           0.068118            1.85360
      9       0.00000           0.106709            2.90371
     10       0.00000           0.106715            2.90387
     11       0.00000           0.223069            6.07003

  Spin-down eigenvalues:
  K-point:       1 at    0.000000    0.000000    0.000000 (in units of recip. lattice)

  State    Occupation    Eigenvalue [Ha]    Eigenvalue [eV]
      1       1.00000          -9.978539         -271.52985
      2       1.00000          -9.977576         -271.50366
      3       1.00000          -0.920202          -25.03997
      4       1.00000          -0.482386          -13.12639
      5       1.00000          -0.312818           -8.51220
      6       1.00000          -0.312815           -8.51212
      7       0.00000           0.020099            0.54693
      8       0.00000           0.068118            1.85360
      9       0.00000           0.106709            2.90371
     10       0.00000           0.106715            2.90387
     11       0.00000           0.223069            6.07003

  Current spin moment of the entire structure :
  | N = N_up - N_down (sum over all k points):         0.00000
  | S (sum over all k points)                :         0.00000

  What follows are estimated values for band gap, HOMO, LUMO, etc.
  | They are estimated on a discrete k-point grid and not necessarily exact.
  | For converged numbers, create a DOS and/or band structure plot on a denser k-grid.

  Highest occupied state (VBM) at     -7.83349974 eV (relative to internal zero)
  | Occupation number:      1.00000000
  | K-point:       7 at    0.500000    0.000000    0.000000 (in units of recip. lattice)
  | Spin channel:        2

  Lowest unoccupied state (CBM) at    -3.76863707 eV (relative to internal zero)
  | Occupation number:      0.00000000
  | K-point:       3 at    0.000000    0.500000    0.000000 (in units of recip. lattice)
  | Spin channel:        1

  ESTIMATED overall HOMO-LUMO gap:      4.06486267 eV between HOMO at k-point 7 and LUMO at k-point 3
  | This appears to be an indirect band gap.
  | Smallest direct gap :      4.06487359 eV for k_point 3 at    0.000000    0.500000    0.000000 (in units of recip. lattice)
  | Direct gap HOMO spin channel :     2
  | Direct gap LUMO spin channel :     1
  The gap value is above 0.2 eV. Unless you are using a very sparse k-point grid,
  this system is most likely an insulator or a semiconductor.

  Self-consistency cycle converged.

  End self-consistency iteration #    14       :  max(cpu_time)    wall_clock(cpu1)
  | Time for this iteration                    :        5.448 s           5.461 s
  | Charge density update                      :        3.261 s           3.267 s
  | Density mixing                             :        0.202 s           0.203 s
  | Hartree multipole update                   :        0.002 s           0.001 s
  | Hartree multipole summation                :        0.276 s           0.277 s
  | Integration                                :        1.696 s           1.700 s
  | Solution of K.-S. eqns.                    :        0.010 s           0.010 s
  | Total energy evaluation                    :        0.000 s           0.000 s
------------------------------------------------------------
  Obtaining max. number of non-zero basis functions in each batch .
  Evaluating KS electron density on previously omitted grid points, using the density matrix.
  Evaluating density matrix
  Evaluating density matrix
  Evaluating non-empirical van der Waals correction (Tkatchenko/Scheffler 2009).
  Performing Hirshfeld analysis of fragment charges and moments.
  ----------------------------------------------------------------------
  | Atom     1: C
  |   Hirshfeld charge        :     -0.00003373
  |   Free atom volume        :     38.37861207
  |   Hirshfeld volume        :     32.33575018
  |   Hirshfeld spin moment   :      0.00000004
  |   Hirshfeld dipole vector :     -0.00004907      -0.00000013       0.00000001
  |   Hirshfeld dipole moment :      0.00004907
  |   Hirshfeld second moments:      0.08601821      -0.00000028       0.00000000
  |                                 -0.00000028       0.08583669      -0.00000000
  |                                  0.00000000      -0.00000000       0.25113653
  ----------------------------------------------------------------------
  | Atom     2: C
  |   Hirshfeld charge        :     -0.00003373
  |   Free atom volume        :     38.37861207
  |   Hirshfeld volume        :     32.33575018
  |   Hirshfeld spin moment   :      0.00000004
  |   Hirshfeld dipole vector :      0.00004907       0.00000013      -0.00000001
  |   Hirshfeld dipole moment :      0.00004907
  |   Hirshfeld second moments:      0.08601821      -0.00000028       0.00000000
  |                                 -0.00000028       0.08583669      -0.00000000
  |                                  0.00000000      -0.00000000       0.25113653
  ----------------------------------------------------------------------

  Converging periodic supercell size for vdw calculation.

  Total energy components:
  | Sum of eigenvalues            :         -44.21656203 Ha       -1203.19387077 eV
  | XC energy correction          :         -10.81909692 Ha        -294.40260624 eV
  | XC potential correction       :          13.90017015 Ha         378.24287455 eV
  | Free-atom electrostatic energy:         -33.32004492 Ha        -906.68455390 eV
  | Hartree energy correction     :          -1.77092744 Ha         -48.18938744 eV
  | van der Waals energy corr.    :          -0.00381732 Ha          -0.10387459 eV
  | Entropy correction            :           0.00000000 Ha           0.00000000 eV
  | ---------------------------
  | Total energy                  :         -76.23027848 Ha       -2074.33141839 eV
  | Total energy, T -> 0          :         -76.23027848 Ha       -2074.33141839 eV  <-- do not rely on this value for anything but (periodic) metals
  | Electronic free energy        :         -76.23027848 Ha       -2074.33141839 eV

  Derived energy quantities:
  | Kinetic energy                :          75.98571022 Ha        2067.67637727 eV
  | Electrostatic energy          :        -141.39307446 Ha       -3847.50131484 eV
  | Energy correction for multipole
  | error in Hartree potential    :          -0.01144721 Ha          -0.31149433 eV
  | Sum of eigenvalues per atom                           :        -601.59693539 eV
  | Total energy (T->0) per atom                          :       -1037.16570919 eV  <-- do not rely on this value for anything but (periodic) metals
  | Electronic free energy per atom                       :       -1037.16570919 eV
  Timings for VdW correction (Tkatchenko-Scheffler 2009 or later):
  | CPU time:        1.272 s, Wall clock time:        1.275 s.

  Energy and forces in a compact form:
  | Total energy uncorrected      :         -0.207433141838956E+04 eV
  | Total energy corrected        :         -0.207433141838956E+04 eV  <-- do not rely on this value for anything but (periodic) metals
  | Electronic free energy        :         -0.207433141838956E+04 eV

  ------------------------------------ 
  Start decomposition of the XC Energy 
  ------------------------------------ 
  Hartree-Fock part   :          0.000000000 Ha              0.000000000 eV
  ------------------------------------ 
  X Energy            :        -10.399337592 Ha           -282.980373754 eV
  C Energy GGA        :         -0.419759328 Ha            -11.422232484 eV
  Total XC Energy     :        -10.819096920 Ha           -294.402606238 eV
  LDA X and C from self-consistent density 
  X Energy LDA        :         -9.434798870 Ha           -256.733939725 eV
  C Energy LDA        :         -0.796175091 Ha            -21.665026541 eV
  ------------------------------------ 
  End decomposition of the XC Energy 
  ------------------------------------ 
  Post-scf processing of Kohn-Sham eigenvalues on a denser k-point grid.
  | Using dos_kgrid_factors to calculate post-scf total density of states.
  | Electron chemical potential:    -5.868606969359 eV.
  Integrating Hamiltonian matrix: batch-based integration.
  Time summed over all CPUs for integration: real work       13.125 s, elapsed       13.368 s
  Processing batch of k-points:     1     1     1
  Processing batch of k-points:     1     2     1
  Processing batch of k-points:     2     1     1
  Processing batch of k-points:     2     2     1
  | writing perturbative DOS (shifted by electron chemical potential) to file KS_dos_total.dat
  | writing perturbative DOS (raw data) to file KS_dos_total_raw.dat

------------------------------------------------------------------------------
  Final output of selected total energy values:

  The following output summarizes some interesting total energy values
  at the end of a run (AFTER all relaxation, molecular dynamics, etc.).

  | Total energy of the DFT / Hartree-Fock s.c.f. calculation      :          -2074.331418390 eV
  | Final zero-broadening corrected energy (caution - metals only) :          -2074.331418390 eV
  | For reference only, the value of 1 Hartree used in FHI-aims is :             27.211384500 eV

  Before relying on these values, please be sure to understand exactly which
  total energy value is referred to by a given number. Different objects may
  all carry the same name 'total energy'. Definitions:

  Total energy of the DFT / Hartree-Fock s.c.f. calculation:
  | Note that this energy does not include ANY quantities calculated after the
  | s.c.f. cycle, in particular not ANY RPA, MP2, etc. many-body perturbation terms.

  Final zero-broadening corrected energy:
  | For metallic systems only, a broadening of the occupation numbers at the Fermi
  | level can be extrapolated back to zero broadening by an electron-gas inspired
  | formula. For all systems that are not real metals, this value can be
  | meaningless and should be avoided.

------------------------------------------------------------------------------

------------------------------------------------------------
          Leaving FHI-aims.
          Date     :  20220221, Time     :  151730.479

          Computational steps:
          | Number of self-consistency cycles          :           14

          Detailed time accounting                     :  max(cpu_time)    wall_clock(cpu1)
          | Total time                                 :       82.658 s          83.052 s
          | Preparation time                           :        0.175 s           0.176 s
          | Grid partitioning                          :        0.056 s           0.059 s
          | Preloading free-atom quantities on grid    :        0.005 s           0.005 s
          | Free-atom superposition energy             :        0.032 s           0.032 s
          | Total time for integrations                :       26.313 s          26.373 s
          | Total time for solution of K.-S. equations :        0.170 s           0.233 s
          | Total time for density update              :       45.673 s          45.768 s
          | Total time for mixing & preconditioning    :        2.828 s           2.839 s
          | Total time for Hartree multipole update    :        0.021 s           0.022 s
          | Total time for Hartree multipole sum       :        3.867 s           3.877 s
          | Total time for total energy evaluation     :        0.003 s           0.010 s
          | Total time for scaled ZORA corrections     :        0.000 s           0.000 s
          | Total time for vdW correction              :        1.272 s           1.275 s

          Have a nice day.
------------------------------------------------------------
