  MPI-parallelism will be employed.
------------------------------------------------------------
          Invoking FHI-aims ...
          Version 052014
          Git rev. (modified): 096c982 Merge branch master of fhiaims:/pub/localo[...]
          Compiled on 2016/12/16 at 15:22:01 on host login02.hpc.iitd.ac.in.

          When using FHI-aims, please cite the following reference:

          Volker Blum, Ralf Gehrke, Felix Hanke, Paula Havu,
          Ville Havu, Xinguo Ren, Karsten Reuter, and Matthias Scheffler,
          'Ab Initio Molecular Simulations with Numeric Atom-Centered Orbitals: FHI-aims',
          Computer Physics Communications 180, 2175-2196 (2009)

          For any questions about FHI-aims, please visit the aimsclub website
          with its forums and wiki. Contributions to both the forums and the
          wiki are warmly encouraged - they are for you, and everyone is welcome there.

------------------------------------------------------------

  Date     :  20220120, Time     :  152925.573
  Time zero on CPU 1             :   0.121000000000000E-01  s.
  Internal wall clock time zero  :           411924565.573  s.

  Using        8 parallel tasks.
  Task        0 on host csky029 reporting.
  Task        1 on host csky029 reporting.
  Task        2 on host csky029 reporting.
  Task        3 on host csky029 reporting.
  Task        4 on host csky029 reporting.
  Task        5 on host csky029 reporting.
  Task        6 on host csky029 reporting.
  Task        7 on host csky029 reporting.

  Performing system and environment tests:
  | Environment variable OMP_NUM_THREADS correctly set to 1.
  | Stacksize not measured: no C compiler
  | Checking for scalapack...
  | Testing pdtran()...
  | All pdtran() tests passed.

  Obtaining array dimensions for all initial allocations:
  
  -----------------------------------------------------------------------
  Parsing control.in (first pass over file, find array dimensions only).
  The contents of control.in will be repeated verbatim below
  unless switched off by setting 'verbatim_writeout .false.' .
  in the first line of control.in .
  -----------------------------------------------------------------------
  
    xc               pbe
    spin             collinear
    default_initial_moment hund
    relativistic     atomic_zora scalar 1e-9
    occupation_type  gaussian 0.001
    charge        0
    vdw_correction_hirshfeld
    KS_method        scalapack_fast
    mixer            pulay
    charge_mix_param  0.4
    spin_mix_param    0.6
    sc_accuracy_rho  1E-4
    sc_accuracy_eev  1E-5
    sc_accuracy_etot 1E-5
    sc_iter_limit    100
    empty_states     10
  ################################################################################
  #
  #  FHI-aims code project
  # Volker Blum, Fritz Haber Institute Berlin, 2009
  #
  #  Suggested "tight" defaults for H atom (to be pasted into control.in file)
  #
  ################################################################################
    species        H
  #     global species definitions
      nucleus             1
      mass                1.00794
  #
      l_hartree           6
  #
      cut_pot             4.0  2.0  1.0
      basis_dep_cutoff    1e-4
  #
      radial_base         24 7.0
      radial_multiplier   2
      angular_grids       specified
        division   0.1930   50
        division   0.3175  110
        division   0.4293  194
        division   0.5066  302
        division   0.5626  434
  #      division   0.5922  590
  #      division   0.6227  974
  #      division   0.6868 1202
  #      outer_grid  770
        outer_grid  434
  ################################################################################
  #
  #  Definition of "minimal" basis
  #
  ################################################################################
  #     valence basis states
      valence      1  s   1.
  #     ion occupancy
      ion_occ      1  s   0.5
  ################################################################################
  #
  #  Suggested additional basis functions. For production calculations,
  #  uncomment them one after another (the most important basis functions are
  #  listed first).
  #
  #  Basis constructed for dimers: 0.5 A, 0.7 A, 1.0 A, 1.5 A, 2.5 A
  #
  ################################################################################
  #  "First tier" - improvements: -1014.90 meV to -62.69 meV
       hydro 2 s 2.1
       hydro 2 p 3.5
  #  "Second tier" - improvements: -12.89 meV to -1.83 meV
       hydro 1 s 0.85
       hydro 2 p 3.7
       hydro 2 s 1.2
       hydro 3 d 7
  #  "Third tier" - improvements: -0.25 meV to -0.12 meV
  #     hydro 4 f 11.2
  #     hydro 3 p 4.8
  #     hydro 4 d 9
  #     hydro 3 s 3.2
  ################################################################################
  #
  # For methods that use the localized form of the "resolution of identity" for
  # the two-electron Coulomb operator (RI_method LVL), particularly Hartree-Fock and
  # hybrid density functional calculations, the highest accuracy can be obtained by
  # uncommenting the line beginning with "for_aux"  below, thus adding an extra g radial
  # function to the construction of the product basis set for the expansion.
  # See Ref. New J. Phys. 17, 093020 (2015) for more information, particularly Figs. 1 and 6.
  #
  ################################################################################
  #
  # for_aux hydro 5 g 6.0
  
  -----------------------------------------------------------------------
  Completed first pass over input file control.in .
  -----------------------------------------------------------------------
  
  
  -----------------------------------------------------------------------
  Parsing geometry.in (first pass over file, find array dimensions only).
  The contents of geometry.in will be repeated verbatim below
  unless switched off by setting 'verbatim_writeout .false.' .
  in the first line of geometry.in .
  -----------------------------------------------------------------------
  
  atom 0 0 0 H
  atom 0 0 0.74 H
  
  -----------------------------------------------------------------------
  Completed first pass over input file geometry.in .
  -----------------------------------------------------------------------
  

  Basic array size parameters:
  | Number of species                 :        1
  | Number of atoms                   :        2
  | Max. basis fn. angular momentum   :        2
  | Max. atomic/ionic basis occupied n:        1
  | Max. number of basis fn. types    :        2
  | Max. radial fns per species/type  :        6
  | Max. logarithmic grid size        :     1131
  | Max. radial integration grid size :       49
  | Max. angular integration grid size:      434
  | Max. angular grid division number :        8
  | Radial grid for Hartree potential :     1131
  | Number of spin channels           :        2

------------------------------------------------------------
          Reading file control.in.
------------------------------------------------------------
  XC: Using PBE gradient-corrected functionals.
  Spin treatment: Spin density functional theory - collinear spins.
  Initial spin moment per atom set according to Hund's rules.
  Scalar relativistic treatment of kinetic energy: on-site free-atom approximation to ZORA.
  Occupation type: Gaussian broadening, width =   0.100000E-02 eV.
  Charge =   0.000000E+00: Neutral system requested explicitly.
  Using non-empirical van der Waals correction (Hirshfeld partitioning):
  Kohn-Sham eigenvalues and eigenfunctions calculated by the ELPA eigensolver library.
  Using pulay charge density mixing.
  Charge density mixing - mixing parameter:     0.4000
  Spin density mixing - mixing parameter:     0.6000
  Convergence accuracy of self-consistent charge density: 0.1000E-03
  Convergence accuracy of sum of eigenvalues: 0.1000E-04
  Convergence accuracy of total energy: 0.1000E-04
  Maximum number of s.-c. iterations  :   100
  Number of empty states per atom:       10
 
  Reading configuration options for species H                   .
  | Found nuclear charge :   1.0000
  | Found atomic mass :    1.00794000000000      amu
  | Found l_max for Hartree potential  :   6
  | Found cutoff potl. onset [A], width [A], scale factor :    4.00000    2.00000    1.00000
  | Threshold for basis-dependent cutoff potential is   0.100000E-03
  | Found data for basic radial integration grid :    24 points, outermost radius =    7.000 A
  | Found multiplier for basic radial grid :   2
  | Found angular grid specification: user-specified.
  | Specified grid contains     6 separate shells.
  | Check grid settings after all constraints further below.
  | Found free-atom valence shell :  1 s   1.000
  | No ionic wave fns used. Skipping ion_occ.
  | Found hydrogenic basis function :  2 s   2.100
  | Found hydrogenic basis function :  2 p   3.500
  | Found hydrogenic basis function :  1 s   0.850
  | Found hydrogenic basis function :  2 p   3.700
  | Found hydrogenic basis function :  2 s   1.200
  | Found hydrogenic basis function :  3 d   7.000
  Species H                   : Missing cutoff potential type.
  Defaulting to exp(1/x)/(1-x)^2 type cutoff potential.
  Species H : No 'logarithmic' tag. Using default grid for free atom:
  | Default logarithmic grid data [bohr] : 0.1000E-03 0.1000E+03 0.1012E+01
  Species H : On-site basis accuracy parameter (for Gram-Schmidt orthonormalisation) not specified.
  Using default value basis_acc =  0.1000000E-03.
  Species H                   : Using default innermost maximum threshold i_radial=  2 for radial functions.
  Species H                   : Default cutoff onset for free atom density etc. : 0.40000000E+01 AA.
  Species H                   : Basic radial grid will be enhanced according to radial_multiplier =   2, to contain    49 grid points.
 
  Finished reading input file 'control.in'. Consistency checks are next.
 
  Target number of points in a grid batch is not set. Defaulting to  100
  Method for grid partitioning is not set. Defaulting to parallel hash+maxmin partitioning.
  Batch size limit is not set. Defaulting to    200
  By default, will store active basis functions for each batch.
  If in need of memory, prune_basis_once .false. can be used to disable this option.
  communication_type for Hartree potential was not specified.
  Defaulting to calc_hartree .
  Pulay mixer: Number of relevant iterations not set.
  Defaulting to    8 iterations.
  Pulay mixer: Number of initial linear mixing iterations not set.
  Defaulting to    0 iterations.
  Work space size for distributed Hartree potential not set.
  Defaulting to   0.200000E+03 MB.
  Algorithm-dependent basis array size parameters:
  | n_max_pulay                         :        8
  Calculation of forces was not defined in control.in. No forces will be calculated.
  Geometry relaxation not requested: no relaxation will be performed.
  No accuracy limit for integral partition fn. given. Defaulting to 0.1000E-14.
  No threshold value for u(r) in integrations given. Defaulting to 0.1000E-05.
  No accuracy for occupation numbers given. Defaulting to 0.1000E-07.
  No threshold value for occupation numbers given. Defaulting to 0.0000E+00.
  No accuracy for fermi level given. Defaulting to 0.1000E-19.
  Maximum # of iterations to find E_F not set. Defaulting to  200.
  Will not use alltoall communication since running on < 1024 CPUs.
  Threshold for basis singularities not set.
  Default threshold for basis singularities: 0.1000E-04
  partition_type (choice of integration weights) for integrals was not specified.
  | Using a version of the partition function of Stratmann and coworkers ('stratmann_smoother').
  | At each grid point, the set of atoms used to build the partition table is smoothly restricted to
  | only those atoms whose free-atom density would be non-zero at that grid point.
  Partitioning for Hartree potential was not defined. Using partition_type for integrals.
  | Adjusted default value of keyword multip_moments_threshold to:       0.10000000E-11
  | This value may affect high angular momentum components of the Hartree potential in periodic systems.
  No q(lm)/r^(l+1) cutoff set for long-range Hartree potential.
  | Using default value of  0.100000E-09 .
  | Verify using the multipole_threshold keyword.
  Defaulting to new monopole extrapolation.
  Density update method: automatic selection selected.
------------------------------------------------------------


------------------------------------------------------------
          Reading geometry description geometry.in.
------------------------------------------------------------
  Input structure read successfully.
  The structure contains        2 atoms,  and a total of          2.000 electrons.

  Input geometry:
  | No unit cell requested.
  | Atomic structure:
  |       Atom                x [A]            y [A]            z [A]
  |    1: Species H              0.000000         0.000000         0.000000
  |    2: Species H              0.000000         0.000000         0.740000
  |

  | The smallest distance between any two atoms is         0.74000000 AA.
  |
  | The first atom of this pair is atom number                      1 .
  | The second atom of this pair is atom number                     2 .

  Initial moments and charges:
  |  Atom   Moment         Charge        Species
  |     1  (Hund's rule)   0.000000E+00   H
  |     2  (Hund's rule)   0.000000E+00   H

  Structure-dependent array size parameters: 
  | Number of distinct atom types in initial rho :        1
  | Maximum number of distinct radial functions  :        7
  | Maximum number of basis functions            :       30
  | Number of Kohn-Sham states (occupied + empty):       11
------------------------------------------------------------

------------------------------------------------------------
          Preparing all fixed parts of the calculation.
------------------------------------------------------------
  Determining machine precision:
    2.225073858507201E-308
  Setting up grids for atomic and cluster calculations.

  Creating wave function, potential, and density for free atoms.

  Species: H

  List of occupied orbitals and eigenvalues:
    n    l              occ      energy [Ha]    energy [eV]
    1    0           1.0000        -0.238386        -6.4868

  Spin-polarized or charged system:
  Charge density initialized according to selected moments and charges.

  Creating spin-polarized density from free atoms.

  Species: H
  Charge:   0.000000
  applying Hund's rules ...

  List of occupied orbitals and eigenvalues:
    n    l      energy [Ha]    energy [eV]    occupation
  Spin-up
    1    0        -0.278991        -7.5917     1.00000000
  Spin-down
    1    0         0.090850         2.4721     0.00000000

  Creating fixed part of basis set: Ionic, confined, hydrogenic.
 
  H                    hydrogenic:
 
  List of hydrogenic basis orbitals: 
    n    l      effective z      eigenvalue [eV]  inner max. [A]     outer max. [A]     outer radius [A]   
    2    0         2.100000       -14.9965           0.193243           1.317208           5.373006
    2    1         3.500000       -41.6672           0.602369           0.602369           4.056063
    1    0         0.850000        -9.8292           0.624871           0.624871           5.373006
    2    1         3.700000       -46.5653           0.573622           0.573622           3.910002
    2    0         1.200000        -4.5995           0.334980           2.228188           5.505995
    3    2         7.000000       -74.0753           0.680699           0.680699           3.769201
 

  Adding cutoff potential to free-atom effective potential.
  Creating atomic-like basis functions for current effective potential.

  Species H                   :

  List of atomic basis orbitals and eigenvalues:
    n    l      energy [Ha]    energy [eV]    outer radius [A]
    1    0        -0.238386        -6.4868       5.373006

  Assembling full basis from fixed parts.
  | Species H :   atomic orbital   1 s accepted.
  | Species H :    hydro orbital   2 s accepted.
  | Species H :    hydro orbital   1 s accepted.
  | Species H :    hydro orbital   2 s accepted.
  | Species H :    hydro orbital   2 p accepted.
  | Species H :    hydro orbital   2 p accepted.
  | Species H :    hydro orbital   3 d accepted.
 
  Basis size parameters after reduction:
  | Total number of radial functions:        7
  | Total number of basis functions :       30
 
  Testing on-site integration grid accuracy.
  |  Species  Function  <phi|h_atom|phi> (log., in eV)  <phi|h_atom|phi> (rad., in eV)
           1        1                 -6.4870767962                 -6.4871688290
           1        2                 13.5032046589                 13.5028982997
           1        3                 32.8195184817                 32.8119941656
           1        4                 33.8513856511                 33.7670005767 ***
           1        5                 28.8544614965                 28.8544615203
           1        6                 59.6326952547                 59.6327656460
           1        7                 60.2719308513                 60.2719305949
 * Note: Onsite integrals marked "***" above are less accurate than
 * onsite_accuracy_threshold =    0.03000 eV. Usually, this is harmless.
 * When in doubt, tighten the "radial" and/or "radial_multiplier" flags to check.

  Preparing densities etc. for the partition functions (integrals / Hartree potential).

  Preparations completed.
  max(cpu_time)          :      0.081 s.
  Wall clock time (cpu1) :      0.081 s.
------------------------------------------------------------

------------------------------------------------------------
          Begin self-consistency loop: Initialization.

          Date     :  20220120, Time     :  152925.768
------------------------------------------------------------

  Initializing index lists of integration centers etc. from given atomic structure:
  | Number of centers in hartree potential         :         2
  | Number of centers in hartree multipole         :         2
  | Number of centers in electron density summation:         2
  | Number of centers in basis integrals           :         2
  | Number of centers in integrals                 :         2
  Using modified Scalapack Eigenvalue solver (ELPA)
  * Using 8 tasks for Scalapack Eigenvalue solver.
  Detailed listing of tasks and assigned k-points:
  (for non-periodic systems, the "k-point" denotes an internal label only)
   Task     0 k-point     1 on csky029
   Task     1 k-point     1 on csky029
   Task     2 k-point     1 on csky029
   Task     3 k-point     1 on csky029
   Task     4 k-point     1 on csky029
   Task     5 k-point     1 on csky029
   Task     6 k-point     1 on csky029
   Task     7 k-point     1 on csky029
  Tasks:     8 split into      4 X      2 BLACS grid
  Calculating blocksize based on n_basis =           30 max_nprow =            4 max_npcol =            2
  Scalapack blocksize set to:            4
  Required Scalapack workspace - INTEGER:            1 REAL:             1
  Partitioning the integration grid into batches with parallel hashing+maxmin method.
  | Number of batches:      443
  | Maximal batch size:     197
  | Minimal batch size:      49
  | Average batch size:      65.237
  | Standard deviation of batch sizes:      18.372

  Integration load balanced across     8 MPI tasks.
  Work distribution over tasks is as follows:
  Task     0 has       3585 integration points.
  Task     1 has       3641 integration points.
  Task     2 has       3626 integration points.
  Task     3 has       3580 integration points.
  Task     4 has       3681 integration points.
  Task     5 has       3587 integration points.
  Task     6 has       3586 integration points.
  Task     7 has       3614 integration points.
  Initializing partition tables, free-atom densities, potentials, etc. across the integration grid (initialize_grid_storage).
  | initialize_grid_storage: Actual outermost partition radius vs. multipole_radius_free
  | (-- VB: in principle, multipole_radius_free should be larger, hence this output)
  | Species        1: outer_partition_radius =              6.000000000000000 AA, multipole_radius_free =              6.071692442739658 AA.
  | Original list of interatomic distances with           2 x          2 entries is created.
  | Net number of integration points:    28900
  | of which are non-zero points    :    26588
  Obtaining max. number of non-zero basis functions in each batch (get_n_compute_maxes).
  | Maximal number of non-zero basis functions:       30 in task     0
  | Maximal number of non-zero basis functions:       30 in task     1
  | Maximal number of non-zero basis functions:       30 in task     2
  | Maximal number of non-zero basis functions:       30 in task     3
  | Maximal number of non-zero basis functions:       30 in task     4
  | Maximal number of non-zero basis functions:       30 in task     5
  | Maximal number of non-zero basis functions:       30 in task     6
  | Maximal number of non-zero basis functions:       30 in task     7
  Selecting the method for density update.
  Loop over occupied states selected for charge density update.
  Integrating Hamiltonian matrix: batch-based integration.
  Time summed over all CPUs for integration: real work        0.084 s, elapsed        0.097 s
  Integrating overlap matrix.
  Time summed over all CPUs for integration: real work        0.022 s, elapsed        0.030 s
  Deallocating overlap matrix.

  Updating Kohn-Sham eigenvalues, eigenvectors, occupation numbers, and Fermi level.
  Solving generalized eigenproblem
  Solving real symmetric generalised eigenvalue problem by standard ScaLAPACK.
  Transforming overlap matrix with ScaLAPACK and checking for singularities.
  : Overlap matrix is nonsingular, using Cholesky decomposition
  | Lowest eigenvalue:  0.237772E-03
  Factoring overlap matrix with Cholesky decomposition
  Using Cholesky factor for transformation
  Using 1-stage real ELPA solver
  Solving real symmetric generalised eigenvalue problem by standard ScaLAPACK.
  Using Cholesky factor for transformation
  Using 1-stage real ELPA solver
  Determining occupation numbers for Kohn-Sham eigenstates.
  | Chemical potential (Fermi level) in eV                 : -.98669655E-01
  | Error in electron count due to remaining E_F inaccuracy: 0.00000000E+00
  | Maximum occupation number of highest empty state:  0.00E+00

  Writing Kohn-Sham eigenvalues.

  Spin-up eigenvalues:

  State    Occupation    Eigenvalue [Ha]    Eigenvalue [eV]
      1       1.00000          -0.589386          -16.03800
      2       1.00000          -0.054361           -1.47924
      3       0.00000           0.008946            0.24344
      4       0.00000           0.106798            2.90612
      5       0.00000           0.210502            5.72806
      6       0.00000           0.210502            5.72806
      7       0.00000           0.299115            8.13932
      8       0.00000           0.462354           12.58129
      9       0.00000           0.659433           17.94409
     10       0.00000           0.675316           18.37630
     11       0.00000           0.675316           18.37630

  Spin-down eigenvalues:

  State    Occupation    Eigenvalue [Ha]    Eigenvalue [eV]
      1       0.00000           0.099284            2.70166
      2       0.00000           0.116047            3.15779
      3       0.00000           0.504951           13.74041
      4       0.00000           0.536405           14.59633
      5       0.00000           1.151108           31.32326
      6       0.00000           1.151108           31.32326
      7       0.00000           1.224696           33.32567
      8       0.00000           1.526113           41.52766
      9       0.00000           1.526113           41.52766
     10       0.00000           1.570622           42.73880
     11       0.00000           1.675477           45.59205

  Current spin moment of the entire structure :
  | N = N_up - N_down :    2.00
  | S                 :    1.00
  | J                 :    3.00

  Highest occupied state (VBM) at     -1.47923897 eV
  | Occupation number:      1.00000000
  | Spin channel:        1

  Lowest unoccupied state (CBM) at     0.24343547 eV
  | Occupation number:      0.00000000
  | Spin channel:        1

  Overall HOMO-LUMO gap:      1.72267444 eV.
  Calculating total energy contributions from superposition of free atom densities.

  Total energy components:
  | Sum of eigenvalues            :          -0.64374655 Ha         -17.51723500 eV
  | XC energy correction          :          -0.68609141 Ha         -18.66949720 eV
  | XC potential correction       :           0.88519804 Ha          24.08746432 eV
  | Free-atom electrostatic energy:          -0.34179210 Ha          -9.30063612 eV
  | Hartree energy correction     :           0.00000000 Ha           0.00000000 eV
  | van der Waals energy corr.    :           0.00000000 Ha           0.00000000 eV
  | Entropy correction            :           0.00000000 Ha           0.00000000 eV
  | ---------------------------
  | Total energy                  :          -0.78643202 Ha         -21.39990400 eV
  | Total energy, T -> 0          :          -0.78643202 Ha         -21.39990400 eV  <-- do not rely on this value for anything but (periodic) metals
  | Electronic free energy        :          -0.78643202 Ha         -21.39990400 eV

  Derived energy quantities:
  | Kinetic energy                :           1.19774030 Ha          32.59217192 eV
  | Electrostatic energy          :          -1.29808091 Ha         -35.32257872 eV
  | Energy correction for multipole
  | error in Hartree potential    :           0.00000000 Ha           0.00000000 eV
  | Sum of eigenvalues per atom                           :          -8.75861750 eV
  | Total energy (T->0) per atom                          :         -10.69995200 eV  <-- do not rely on this value for anything but (periodic) metals
  | Electronic free energy per atom                       :         -10.69995200 eV
  Initialize hartree_potential_storage
  Max. number of atoms included in rho_multipole:            2

  End scf initialization - timings             :  max(cpu_time)    wall_clock(cpu1)
  | Time for scf. initialization               :        0.046 s           0.046 s
  | Boundary condition initialization          :        0.000 s           0.000 s
  | Integration                                :        0.016 s           0.017 s
  | Solution of K.-S. eqns.                    :        0.008 s           0.008 s
  | Grid partitioning                          :        0.007 s           0.007 s
  | Preloading free-atom quantities on grid    :        0.004 s           0.003 s
  | Free-atom superposition energy             :        0.003 s           0.003 s
  | Total energy evaluation                    :        0.000 s           0.001 s
------------------------------------------------------------

------------------------------------------------------------
          Begin self-consistency iteration #    1

  Date     :  20220120, Time     :  152925.814
------------------------------------------------------------
  Evaluating new KS density.
  Integration grid: deviation in total charge (<rho> - N_e) =   2.317227E-07
  | <rho_up-rho_dn> = N_up-N_dn =      2.0000; <|rho_up-rho_dn|> =      2.0968
  Pulay mixing of updated and previous charge densities.

  Evaluating partitioned Hartree potential by multipole expansion.
  | Analytical far-field extrapolation by fixed multipoles:
  | Hartree multipole sum: apparent total charge =  -0.994922E-05
  Summing up the Hartree potential.
  Time summed over all CPUs for potential: real work        0.035 s, elapsed        0.040 s
  | RMS charge density error from multipole expansion :   0.758176E-03

  Integrating Hamiltonian matrix: batch-based integration.
  Time summed over all CPUs for integration: real work        0.068 s, elapsed        0.080 s

  Updating Kohn-Sham eigenvalues, eigenvectors, occupation numbers, and Fermi level.
  Solving generalized eigenproblem
  Solving real symmetric generalised eigenvalue problem by standard ScaLAPACK.
  Using Cholesky factor for transformation
  Using 1-stage real ELPA solver
  Solving real symmetric generalised eigenvalue problem by standard ScaLAPACK.
  Using Cholesky factor for transformation
  Using 1-stage real ELPA solver
  Determining occupation numbers for Kohn-Sham eigenstates.
  | Chemical potential (Fermi level) in eV                 : -.55434951E+01
  | Error in electron count due to remaining E_F inaccuracy: 0.00000000E+00
  | Maximum occupation number of highest empty state:  0.00E+00

  Writing Kohn-Sham eigenvalues.

  Spin-up eigenvalues:

  State    Occupation    Eigenvalue [Ha]    Eigenvalue [eV]
      1       1.00000          -0.487834          -13.27465
      2       0.00000           0.062638            1.70446
      3       0.00000           0.066573            1.81155
      4       0.00000           0.173002            4.70763
      5       0.00000           0.248711            6.76776
      6       0.00000           0.248711            6.76776
      7       0.00000           0.362047            9.85181
      8       0.00000           0.556077           15.13163
      9       0.00000           0.764802           20.81131
     10       0.00000           0.764802           20.81131
     11       0.00000           0.829849           22.58133

  Spin-down eigenvalues:

  State    Occupation    Eigenvalue [Ha]    Eigenvalue [eV]
      1       1.00000          -0.263671           -7.17485
      2       0.00000           0.087875            2.39119
      3       0.00000           0.091137            2.47995
      4       0.00000           0.249281            6.78329
      5       0.00000           0.359154            9.77307
      6       0.00000           0.359154            9.77307
      7       0.00000           0.430813           11.72302
      8       0.00000           0.684497           18.62611
      9       0.00000           0.856607           23.30945
     10       0.00000           0.856607           23.30945
     11       0.00000           0.882601           24.01680

  Current spin moment of the entire structure :
  | N = N_up - N_down :    0.00
  | S                 :    0.00
  | J                 :    1.00

  Highest occupied state (VBM) at     -7.17485106 eV
  | Occupation number:      1.00000000
  | Spin channel:        2

  Lowest unoccupied state (CBM) at     1.70445661 eV
  | Occupation number:      0.00000000
  | Spin channel:        1

  Overall HOMO-LUMO gap:      8.87930767 eV.

  Total energy components:
  | Sum of eigenvalues            :          -0.75150533 Ha         -20.44950050 eV
  | XC energy correction          :          -0.48549776 Ha         -13.21106622 eV
  | XC potential correction       :           0.62593709 Ha          17.03261491 eV
  | Free-atom electrostatic energy:          -0.34179210 Ha          -9.30063612 eV
  | Hartree energy correction     :           0.01194392 Ha           0.32501052 eV
  | van der Waals energy corr.    :           0.00000000 Ha           0.00000000 eV
  | Entropy correction            :           0.00000000 Ha           0.00000000 eV
  | ---------------------------
  | Total energy                  :          -0.94091418 Ha         -25.60357741 eV
  | Total energy, T -> 0          :          -0.94091418 Ha         -25.60357741 eV  <-- do not rely on this value for anything but (periodic) metals
  | Electronic free energy        :          -0.94091418 Ha         -25.60357741 eV

  Derived energy quantities:
  | Kinetic energy                :           0.89343616 Ha          24.31163496 eV
  | Electrostatic energy          :          -1.34885258 Ha         -36.70414615 eV
  | Energy correction for multipole
  | error in Hartree potential    :          -0.00016633 Ha          -0.00452614 eV
  | Sum of eigenvalues per atom                           :         -10.22475025 eV
  | Total energy (T->0) per atom                          :         -12.80178870 eV  <-- do not rely on this value for anything but (periodic) metals
  | Electronic free energy per atom                       :         -12.80178870 eV

  Self-consistency convergence accuracy:
  | Change of charge/spin density : 0.5298E-01 0.5298E-01
  | Change of sum of eigenvalues  : -.2932E+01 eV
  | Change of total energy        : -.4204E+01 eV

  End self-consistency iteration #     1       :  max(cpu_time)    wall_clock(cpu1)
  | Time for this iteration                    :        0.030 s           0.030 s
  | Charge density update                      :        0.008 s           0.007 s
  | Density mixing                             :        0.001 s           0.001 s
  | Hartree multipole update                   :        0.001 s           0.002 s
  | Hartree multipole summation                :        0.006 s           0.006 s
  | Integration                                :        0.010 s           0.010 s
  | Solution of K.-S. eqns.                    :        0.002 s           0.002 s
  | Total energy evaluation                    :        0.000 s           0.001 s
------------------------------------------------------------

------------------------------------------------------------
          Begin self-consistency iteration #    2

  Date     :  20220120, Time     :  152925.850
------------------------------------------------------------
  Evaluating new KS density.
  Integration grid: deviation in total charge (<rho> - N_e) =   1.390336E-07
  | <rho_up-rho_dn> = N_up-N_dn =     -2.0000; <|rho_up-rho_dn|> =      2.0000
  Pulay mixing of updated and previous charge densities.

  Evaluating partitioned Hartree potential by multipole expansion.
  | Analytical far-field extrapolation by fixed multipoles:
  | Hartree multipole sum: apparent total charge =  -0.983678E-05
  Summing up the Hartree potential.
  Time summed over all CPUs for potential: real work        0.033 s, elapsed        0.034 s
  | RMS charge density error from multipole expansion :   0.744761E-03

  Integrating Hamiltonian matrix: batch-based integration.
  Time summed over all CPUs for integration: real work        0.067 s, elapsed        0.072 s

  Updating Kohn-Sham eigenvalues, eigenvectors, occupation numbers, and Fermi level.
  Solving generalized eigenproblem
  Solving real symmetric generalised eigenvalue problem by standard ScaLAPACK.
  Using Cholesky factor for transformation
  Using 1-stage real ELPA solver
  Solving real symmetric generalised eigenvalue problem by standard ScaLAPACK.
  Using Cholesky factor for transformation
  Using 1-stage real ELPA solver
  Determining occupation numbers for Kohn-Sham eigenstates.
  | Chemical potential (Fermi level) in eV                 : -.72734381E+01
  | Error in electron count due to remaining E_F inaccuracy: 0.00000000E+00
  | Maximum occupation number of highest empty state:  0.00E+00

  Current spin moment of the entire structure :
  | N = N_up - N_down :    0.00
  | S                 :    0.00
  | J                 :    1.00

  Highest occupied state (VBM) at     -8.35017827 eV
  | Occupation number:      1.00000000
  | Spin channel:        2

  Lowest unoccupied state (CBM) at     1.17804843 eV
  | Occupation number:      0.00000000
  | Spin channel:        1

  Overall HOMO-LUMO gap:      9.52822670 eV.

  Total energy components:
  | Sum of eigenvalues            :          -0.87121263 Ha         -23.70690175 eV
  | XC energy correction          :          -0.56743938 Ha         -15.44081107 eV
  | XC potential correction       :           0.73313409 Ha          19.94959354 eV
  | Free-atom electrostatic energy:          -0.34179210 Ha          -9.30063612 eV
  | Hartree energy correction     :           0.00942021 Ha           0.25633698 eV
  | van der Waals energy corr.    :           0.00000000 Ha           0.00000000 eV
  | Entropy correction            :           0.00000000 Ha           0.00000000 eV
  | ---------------------------
  | Total energy                  :          -1.03788980 Ha         -28.24241841 eV
  | Total energy, T -> 0          :          -1.03788980 Ha         -28.24241841 eV  <-- do not rely on this value for anything but (periodic) metals
  | Electronic free energy        :          -1.03788980 Ha         -28.24241841 eV

  Derived energy quantities:
  | Kinetic energy                :           0.88120313 Ha          23.97875707 eV
  | Electrostatic energy          :          -1.35165355 Ha         -36.78036441 eV
  | Energy correction for multipole
  | error in Hartree potential    :          -0.00016372 Ha          -0.00445492 eV
  | Sum of eigenvalues per atom                           :         -11.85345088 eV
  | Total energy (T->0) per atom                          :         -14.12120921 eV  <-- do not rely on this value for anything but (periodic) metals
  | Electronic free energy per atom                       :         -14.12120921 eV

  Self-consistency convergence accuracy:
  | Change of charge/spin density : 0.1170E+00 0.2803E+00
  | Change of sum of eigenvalues  : -.3257E+01 eV
  | Change of total energy        : -.2639E+01 eV

  End self-consistency iteration #     2       :  max(cpu_time)    wall_clock(cpu1)
  | Time for this iteration                    :        0.025 s           0.024 s
  | Charge density update                      :        0.006 s           0.006 s
  | Density mixing                             :        0.001 s           0.001 s
  | Hartree multipole update                   :        0.001 s           0.001 s
  | Hartree multipole summation                :        0.004 s           0.005 s
  | Integration                                :        0.009 s           0.009 s
  | Solution of K.-S. eqns.                    :        0.001 s           0.001 s
  | Total energy evaluation                    :        0.000 s           0.000 s
------------------------------------------------------------

------------------------------------------------------------
          Begin self-consistency iteration #    3

  Date     :  20220120, Time     :  152925.879
------------------------------------------------------------
  Evaluating new KS density.
  Integration grid: deviation in total charge (<rho> - N_e) =   1.374856E-07
  | <rho_up-rho_dn> = N_up-N_dn =     -1.9666; <|rho_up-rho_dn|> =      1.9666
  Pulay mixing of updated and previous charge densities.

  Evaluating partitioned Hartree potential by multipole expansion.
  | Analytical far-field extrapolation by fixed multipoles:
  | Hartree multipole sum: apparent total charge =  -0.985322E-05
  Summing up the Hartree potential.
  Time summed over all CPUs for potential: real work        0.034 s, elapsed        0.037 s
  | RMS charge density error from multipole expansion :   0.735257E-03

  Integrating Hamiltonian matrix: batch-based integration.
  Time summed over all CPUs for integration: real work        0.072 s, elapsed        0.075 s

  Updating Kohn-Sham eigenvalues, eigenvectors, occupation numbers, and Fermi level.
  Solving generalized eigenproblem
  Solving real symmetric generalised eigenvalue problem by standard ScaLAPACK.
  Using Cholesky factor for transformation
  Using 1-stage real ELPA solver
  Solving real symmetric generalised eigenvalue problem by standard ScaLAPACK.
  Using Cholesky factor for transformation
  Using 1-stage real ELPA solver
  Determining occupation numbers for Kohn-Sham eigenstates.
  | Chemical potential (Fermi level) in eV                 : -.72932409E+01
  | Error in electron count due to remaining E_F inaccuracy: 0.00000000E+00
  | Maximum occupation number of highest empty state:  0.00E+00

  Current spin moment of the entire structure :
  | N = N_up - N_down :    0.00
  | S                 :    0.00
  | J                 :    1.00

  Highest occupied state (VBM) at     -8.32527864 eV
  | Occupation number:      1.00000000
  | Spin channel:        2

  Lowest unoccupied state (CBM) at     1.16326135 eV
  | Occupation number:      0.00000000
  | Spin channel:        1

  Overall HOMO-LUMO gap:      9.48853999 eV.

  Total energy components:
  | Sum of eigenvalues            :          -0.87118453 Ha         -23.70613728 eV
  | XC energy correction          :          -0.56680180 Ha         -15.42346165 eV
  | XC potential correction       :           0.73231272 Ha          19.92724305 eV
  | Free-atom electrostatic energy:          -0.34179210 Ha          -9.30063612 eV
  | Hartree energy correction     :           0.01095861 Ha           0.29819906 eV
  | van der Waals energy corr.    :           0.00000000 Ha           0.00000000 eV
  | Entropy correction            :           0.00000000 Ha           0.00000000 eV
  | ---------------------------
  | Total energy                  :          -1.03650709 Ha         -28.20479294 eV
  | Total energy, T -> 0          :          -1.03650709 Ha         -28.20479294 eV  <-- do not rely on this value for anything but (periodic) metals
  | Electronic free energy        :          -1.03650709 Ha         -28.20479294 eV

  Derived energy quantities:
  | Kinetic energy                :           0.87861713 Ha          23.90838847 eV
  | Electrostatic energy          :          -1.34832242 Ha         -36.68971976 eV
  | Energy correction for multipole
  | error in Hartree potential    :          -0.00016069 Ha          -0.00437264 eV
  | Sum of eigenvalues per atom                           :         -11.85306864 eV
  | Total energy (T->0) per atom                          :         -14.10239647 eV  <-- do not rely on this value for anything but (periodic) metals
  | Electronic free energy per atom                       :         -14.10239647 eV

  Self-consistency convergence accuracy:
  | Change of charge/spin density : 0.1536E+00 0.2688E+00
  | Change of sum of eigenvalues  : 0.7645E-03 eV
  | Change of total energy        : 0.3763E-01 eV

  End self-consistency iteration #     3       :  max(cpu_time)    wall_clock(cpu1)
  | Time for this iteration                    :        0.028 s           0.028 s
  | Charge density update                      :        0.007 s           0.007 s
  | Density mixing                             :        0.001 s           0.001 s
  | Hartree multipole update                   :        0.001 s           0.002 s
  | Hartree multipole summation                :        0.005 s           0.005 s
  | Integration                                :        0.010 s           0.009 s
  | Solution of K.-S. eqns.                    :        0.002 s           0.002 s
  | Total energy evaluation                    :        0.000 s           0.000 s
------------------------------------------------------------

------------------------------------------------------------
          Begin self-consistency iteration #    4

  Date     :  20220120, Time     :  152925.911
------------------------------------------------------------
  Evaluating new KS density.
  Integration grid: deviation in total charge (<rho> - N_e) =   1.375294E-07
  | <rho_up-rho_dn> = N_up-N_dn =     -1.9671; <|rho_up-rho_dn|> =      1.9671
  Pulay mixing of updated and previous charge densities.

  Evaluating partitioned Hartree potential by multipole expansion.
  | Analytical far-field extrapolation by fixed multipoles:
  | Hartree multipole sum: apparent total charge =  -0.984591E-05
  Summing up the Hartree potential.
  Time summed over all CPUs for potential: real work        0.036 s, elapsed        0.040 s
  | RMS charge density error from multipole expansion :   0.741817E-03

  Integrating Hamiltonian matrix: batch-based integration.
  Time summed over all CPUs for integration: real work        0.072 s, elapsed        0.078 s

  Updating Kohn-Sham eigenvalues, eigenvectors, occupation numbers, and Fermi level.
  Solving generalized eigenproblem
  Solving real symmetric generalised eigenvalue problem by standard ScaLAPACK.
  Using Cholesky factor for transformation
  Using 1-stage real ELPA solver
  Solving real symmetric generalised eigenvalue problem by standard ScaLAPACK.
  Using Cholesky factor for transformation
  Using 1-stage real ELPA solver
  Determining occupation numbers for Kohn-Sham eigenstates.
  | Chemical potential (Fermi level) in eV                 : -.72816035E+01
  | Error in electron count due to remaining E_F inaccuracy: 0.00000000E+00
  | Maximum occupation number of highest empty state:  0.00E+00

  Current spin moment of the entire structure :
  | N = N_up - N_down :    0.00
  | S                 :    0.00
  | J                 :    1.00

  Highest occupied state (VBM) at     -8.38761402 eV
  | Occupation number:      1.00000000
  | Spin channel:        2

  Lowest unoccupied state (CBM) at     1.17460203 eV
  | Occupation number:      0.00000000
  | Spin channel:        1

  Overall HOMO-LUMO gap:      9.56221606 eV.

  Total energy components:
  | Sum of eigenvalues            :          -0.87299978 Ha         -23.75553281 eV
  | XC energy correction          :          -0.56705846 Ha         -15.43044576 eV
  | XC potential correction       :           0.73266111 Ha          19.93672306 eV
  | Free-atom electrostatic energy:          -0.34179210 Ha          -9.30063612 eV
  | Hartree energy correction     :           0.01009131 Ha           0.27459849 eV
  | van der Waals energy corr.    :           0.00000000 Ha           0.00000000 eV
  | Entropy correction            :           0.00000000 Ha           0.00000000 eV
  | ---------------------------
  | Total energy                  :          -1.03909792 Ha         -28.27529315 eV
  | Total energy, T -> 0          :          -1.03909792 Ha         -28.27529315 eV  <-- do not rely on this value for anything but (periodic) metals
  | Electronic free energy        :          -1.03909792 Ha         -28.27529315 eV

  Derived energy quantities:
  | Kinetic energy                :           0.87826003 Ha          23.89867126 eV
  | Electrostatic energy          :          -1.35029949 Ha         -36.74351864 eV
  | Energy correction for multipole
  | error in Hartree potential    :          -0.00016260 Ha          -0.00442451 eV
  | Sum of eigenvalues per atom                           :         -11.87776641 eV
  | Total energy (T->0) per atom                          :         -14.13764657 eV  <-- do not rely on this value for anything but (periodic) metals
  | Electronic free energy per atom                       :         -14.13764657 eV

  Self-consistency convergence accuracy:
  | Change of charge/spin density : 0.1545E+00 0.2682E+00
  | Change of sum of eigenvalues  : -.4940E-01 eV
  | Change of total energy        : -.7050E-01 eV

  End self-consistency iteration #     4       :  max(cpu_time)    wall_clock(cpu1)
  | Time for this iteration                    :        0.028 s           0.027 s
  | Charge density update                      :        0.007 s           0.006 s
  | Density mixing                             :        0.001 s           0.001 s
  | Hartree multipole update                   :        0.001 s           0.002 s
  | Hartree multipole summation                :        0.005 s           0.005 s
  | Integration                                :        0.010 s           0.010 s
  | Solution of K.-S. eqns.                    :        0.001 s           0.002 s
  | Total energy evaluation                    :        0.000 s           0.001 s
------------------------------------------------------------

------------------------------------------------------------
          Begin self-consistency iteration #    5

  Date     :  20220120, Time     :  152925.940
------------------------------------------------------------
  Evaluating new KS density.
  Integration grid: deviation in total charge (<rho> - N_e) =   1.375400E-07
  | <rho_up-rho_dn> = N_up-N_dn =     -1.9676; <|rho_up-rho_dn|> =      1.9676
  Pulay mixing of updated and previous charge densities.

  Evaluating partitioned Hartree potential by multipole expansion.
  | Analytical far-field extrapolation by fixed multipoles:
  | Hartree multipole sum: apparent total charge =  -0.823432E-05
  Summing up the Hartree potential.
  Time summed over all CPUs for potential: real work        0.035 s, elapsed        0.039 s
  | RMS charge density error from multipole expansion :   0.148261E-02

  Integrating Hamiltonian matrix: batch-based integration.
  Time summed over all CPUs for integration: real work        0.068 s, elapsed        0.072 s

  Updating Kohn-Sham eigenvalues, eigenvectors, occupation numbers, and Fermi level.
  Solving generalized eigenproblem
  Solving real symmetric generalised eigenvalue problem by standard ScaLAPACK.
  Using Cholesky factor for transformation
  Using 1-stage real ELPA solver
  Solving real symmetric generalised eigenvalue problem by standard ScaLAPACK.
  Using Cholesky factor for transformation
  Using 1-stage real ELPA solver
  Determining occupation numbers for Kohn-Sham eigenstates.
  | Chemical potential (Fermi level) in eV                 : -.55889317E+01
  | Error in electron count due to remaining E_F inaccuracy: 0.00000000E+00
  | Maximum occupation number of highest empty state:  0.00E+00

  Current spin moment of the entire structure :
  | N = N_up - N_down :    0.00
  | S                 :    0.00
  | J                 :    1.00

  Highest occupied state (VBM) at     -8.26184976 eV
  | Occupation number:      1.00000000
  | Spin channel:        2

  Lowest unoccupied state (CBM) at     1.60488101 eV
  | Occupation number:      0.00000000
  | Spin channel:        1

  Overall HOMO-LUMO gap:      9.86673078 eV.

  Total energy components:
  | Sum of eigenvalues            :          -0.78988054 Ha         -21.49374315 eV
  | XC energy correction          :          -0.65251937 Ha         -17.75595551 eV
  | XC potential correction       :           0.84074484 Ha          22.87783106 eV
  | Free-atom electrostatic energy:          -0.34179210 Ha          -9.30063612 eV
  | Hartree energy correction     :          -0.13122047 Ha          -3.57069076 eV
  | van der Waals energy corr.    :           0.00000000 Ha           0.00000000 eV
  | Entropy correction            :           0.00000000 Ha           0.00000000 eV
  | ---------------------------
  | Total energy                  :          -1.07466764 Ha         -29.24319448 eV
  | Total energy, T -> 0          :          -1.07466764 Ha         -29.24319448 eV  <-- do not rely on this value for anything but (periodic) metals
  | Electronic free energy        :          -1.07466764 Ha         -29.24319448 eV

  Derived energy quantities:
  | Kinetic energy                :           1.16155849 Ha          31.60761477 eV
  | Electrostatic energy          :          -1.58370677 Ha         -43.09485374 eV
  | Energy correction for multipole
  | error in Hartree potential    :          -0.00036279 Ha          -0.00987215 eV
  | Sum of eigenvalues per atom                           :         -10.74687158 eV
  | Total energy (T->0) per atom                          :         -14.62159724 eV  <-- do not rely on this value for anything but (periodic) metals
  | Electronic free energy per atom                       :         -14.62159724 eV

  Self-consistency convergence accuracy:
  | Change of charge/spin density : 0.1547E+00 0.2693E+00
  | Change of sum of eigenvalues  : 0.2262E+01 eV
  | Change of total energy        : -.9679E+00 eV

  End self-consistency iteration #     5       :  max(cpu_time)    wall_clock(cpu1)
  | Time for this iteration                    :        0.028 s           0.027 s
  | Charge density update                      :        0.007 s           0.006 s
  | Density mixing                             :        0.002 s           0.002 s
  | Hartree multipole update                   :        0.001 s           0.002 s
  | Hartree multipole summation                :        0.005 s           0.005 s
  | Integration                                :        0.009 s           0.009 s
  | Solution of K.-S. eqns.                    :        0.002 s           0.002 s
  | Total energy evaluation                    :        0.000 s           0.001 s
------------------------------------------------------------

------------------------------------------------------------
          Begin self-consistency iteration #    6

  Date     :  20220120, Time     :  152925.970
------------------------------------------------------------
  Evaluating new KS density.
  Integration grid: deviation in total charge (<rho> - N_e) =   1.257255E-07
  | <rho_up-rho_dn> = N_up-N_dn =     -1.7663; <|rho_up-rho_dn|> =      1.7663
  Pulay mixing of updated and previous charge densities.

  Evaluating partitioned Hartree potential by multipole expansion.
  | Analytical far-field extrapolation by fixed multipoles:
  | Hartree multipole sum: apparent total charge =  -0.267333E-05
  Summing up the Hartree potential.
  Time summed over all CPUs for potential: real work        0.034 s, elapsed        0.035 s
  | RMS charge density error from multipole expansion :   0.436198E-02

  Integrating Hamiltonian matrix: batch-based integration.
  Time summed over all CPUs for integration: real work        0.068 s, elapsed        0.077 s

  Updating Kohn-Sham eigenvalues, eigenvectors, occupation numbers, and Fermi level.
  Solving generalized eigenproblem
  Solving real symmetric generalised eigenvalue problem by standard ScaLAPACK.
  Using Cholesky factor for transformation
  Using 1-stage real ELPA solver
  Solving real symmetric generalised eigenvalue problem by standard ScaLAPACK.
  Using Cholesky factor for transformation
  Using 1-stage real ELPA solver
  Determining occupation numbers for Kohn-Sham eigenstates.
  | Chemical potential (Fermi level) in eV                 : 0.88660024E+00
  | Error in electron count due to remaining E_F inaccuracy: 0.00000000E+00
  | Maximum occupation number of highest empty state:  0.00E+00

  Current spin moment of the entire structure :
  | N = N_up - N_down :    0.00
  | S                 :    0.00
  | J                 :    1.00

  Highest occupied state (VBM) at     -2.98040629 eV
  | Occupation number:      1.00000000
  | Spin channel:        2

  Lowest unoccupied state (CBM) at     2.46664334 eV
  | Occupation number:      0.00000000
  | Spin channel:        1

  Overall HOMO-LUMO gap:      5.44704962 eV.

  Total energy components:
  | Sum of eigenvalues            :          -0.31071761 Ha          -8.45505630 eV
  | XC energy correction          :          -1.01576492 Ha         -27.64036970 eV
  | XC potential correction       :           1.30762048 Ha          35.58216365 eV
  | Free-atom electrostatic energy:          -0.34179210 Ha          -9.30063612 eV
  | Hartree energy correction     :          -0.78704694 Ha         -21.41663693 eV
  | van der Waals energy corr.    :           0.00000000 Ha           0.00000000 eV
  | Entropy correction            :           0.00000000 Ha           0.00000000 eV
  | ---------------------------
  | Total energy                  :          -1.14770108 Ha         -31.23053541 eV
  | Total energy, T -> 0          :          -1.14770108 Ha         -31.23053541 eV  <-- do not rely on this value for anything but (periodic) metals
  | Electronic free energy        :          -1.14770108 Ha         -31.23053541 eV

  Derived energy quantities:
  | Kinetic energy                :           2.01893618 Ha          54.93804856 eV
  | Electrostatic energy          :          -2.15087234 Ha         -58.52821427 eV
  | Energy correction for multipole
  | error in Hartree potential    :          -0.00101578 Ha          -0.02764089 eV
  | Sum of eigenvalues per atom                           :          -4.22752815 eV
  | Total energy (T->0) per atom                          :         -15.61526770 eV  <-- do not rely on this value for anything but (periodic) metals
  | Electronic free energy per atom                       :         -15.61526770 eV

  Self-consistency convergence accuracy:
  | Change of charge/spin density : 0.7304E-01 0.2930E+00
  | Change of sum of eigenvalues  : 0.1304E+02 eV
  | Change of total energy        : -.1987E+01 eV

  End self-consistency iteration #     6       :  max(cpu_time)    wall_clock(cpu1)
  | Time for this iteration                    :        0.029 s           0.028 s
  | Charge density update                      :        0.008 s           0.006 s
  | Density mixing                             :        0.002 s           0.002 s
  | Hartree multipole update                   :        0.002 s           0.002 s
  | Hartree multipole summation                :        0.005 s           0.005 s
  | Integration                                :        0.010 s           0.010 s
  | Solution of K.-S. eqns.                    :        0.002 s           0.002 s
  | Total energy evaluation                    :        0.000 s           0.001 s
------------------------------------------------------------

------------------------------------------------------------
          Begin self-consistency iteration #    7

  Date     :  20220120, Time     :  152926.000
------------------------------------------------------------
  Evaluating new KS density.
  Integration grid: deviation in total charge (<rho> - N_e) =   8.216200E-08
  | <rho_up-rho_dn> = N_up-N_dn =     -1.0720; <|rho_up-rho_dn|> =      1.3280
  Pulay mixing of updated and previous charge densities.

  Evaluating partitioned Hartree potential by multipole expansion.
  | Analytical far-field extrapolation by fixed multipoles:
  | Hartree multipole sum: apparent total charge =   0.479512E-05
  Summing up the Hartree potential.
  Time summed over all CPUs for potential: real work        0.036 s, elapsed        0.040 s
  | RMS charge density error from multipole expansion :   0.748498E-02

  Integrating Hamiltonian matrix: batch-based integration.
  Time summed over all CPUs for integration: real work        0.067 s, elapsed        0.076 s

  Updating Kohn-Sham eigenvalues, eigenvectors, occupation numbers, and Fermi level.
  Solving generalized eigenproblem
  Solving real symmetric generalised eigenvalue problem by standard ScaLAPACK.
  Using Cholesky factor for transformation
  Using 1-stage real ELPA solver
  Solving real symmetric generalised eigenvalue problem by standard ScaLAPACK.
  Using Cholesky factor for transformation
  Using 1-stage real ELPA solver
  Determining occupation numbers for Kohn-Sham eigenstates.
  | Chemical potential (Fermi level) in eV                 : 0.25114605E+01
  | Error in electron count due to remaining E_F inaccuracy: 0.00000000E+00
  | Maximum occupation number of highest empty state:  0.00E+00

  Current spin moment of the entire structure :
  | N = N_up - N_down :    0.00
  | S                 :    0.00
  | J                 :    1.00

  Highest occupied state (VBM) at      0.98732754 eV
  | Occupation number:      1.00000000
  | Spin channel:        2
 * WARNING: The VBM is higher than the internal energy zero!

  Lowest unoccupied state (CBM) at     2.70072090 eV
  | Occupation number:      0.00000000
  | Spin channel:        1

  Overall HOMO-LUMO gap:      1.71339336 eV.

  Total energy components:
  | Sum of eigenvalues            :           0.05345961 Ha           1.45470987 eV
  | XC energy correction          :          -1.45775727 Ha         -39.66759353 eV
  | XC potential correction       :           1.88467537 Ha          51.28462625 eV
  | Free-atom electrostatic energy:          -0.34179210 Ha          -9.30063612 eV
  | Hartree energy correction     :          -1.77843511 Ha         -48.39368164 eV
  | van der Waals energy corr.    :           0.00000000 Ha           0.00000000 eV
  | Entropy correction            :           0.00000000 Ha           0.00000000 eV
  | ---------------------------
  | Total energy                  :          -1.63984950 Ha         -44.62257516 eV
  | Total energy, T -> 0          :          -1.63984950 Ha         -44.62257516 eV  <-- do not rely on this value for anything but (periodic) metals
  | Electronic free energy        :          -1.63984950 Ha         -44.62257516 eV

  Derived energy quantities:
  | Kinetic energy                :           2.23687592 Ha          60.86849066 eV
  | Electrostatic energy          :          -2.41896815 Ha         -65.82347230 eV
  | Energy correction for multipole
  | error in Hartree potential    :          -0.00166583 Ha          -0.04532942 eV
  | Sum of eigenvalues per atom                           :           0.72735494 eV
  | Total energy (T->0) per atom                          :         -22.31128758 eV  <-- do not rely on this value for anything but (periodic) metals
  | Electronic free energy per atom                       :         -22.31128758 eV

  Self-consistency convergence accuracy:
  | Change of charge/spin density : 0.3762E+00 0.3696E+00
  | Change of sum of eigenvalues  : 0.9910E+01 eV
  | Change of total energy        : -.1339E+02 eV

  End self-consistency iteration #     7       :  max(cpu_time)    wall_clock(cpu1)
  | Time for this iteration                    :        0.029 s           0.027 s
  | Charge density update                      :        0.008 s           0.006 s
  | Density mixing                             :        0.002 s           0.002 s
  | Hartree multipole update                   :        0.001 s           0.002 s
  | Hartree multipole summation                :        0.005 s           0.005 s
  | Integration                                :        0.010 s           0.010 s
  | Solution of K.-S. eqns.                    :        0.001 s           0.001 s
  | Total energy evaluation                    :        0.000 s           0.001 s
------------------------------------------------------------

------------------------------------------------------------
          Begin self-consistency iteration #    8

  Date     :  20220120, Time     :  152926.029
------------------------------------------------------------
  Evaluating new KS density.
  Integration grid: deviation in total charge (<rho> - N_e) =   7.368531E-09
  | <rho_up-rho_dn> = N_up-N_dn =      0.1639; <|rho_up-rho_dn|> =      2.1619
  Pulay mixing of updated and previous charge densities.

  Evaluating partitioned Hartree potential by multipole expansion.
  | Analytical far-field extrapolation by fixed multipoles:
  | Hartree multipole sum: apparent total charge =   0.550190E-05
  Summing up the Hartree potential.
  Time summed over all CPUs for potential: real work        0.035 s, elapsed        0.036 s
  | RMS charge density error from multipole expansion :   0.724983E-02

  Integrating Hamiltonian matrix: batch-based integration.
  Time summed over all CPUs for integration: real work        0.066 s, elapsed        0.076 s

  Updating Kohn-Sham eigenvalues, eigenvectors, occupation numbers, and Fermi level.
  Solving generalized eigenproblem
  Solving real symmetric generalised eigenvalue problem by standard ScaLAPACK.
  Using Cholesky factor for transformation
  Using 1-stage real ELPA solver
  Solving real symmetric generalised eigenvalue problem by standard ScaLAPACK.
  Using Cholesky factor for transformation
  Using 1-stage real ELPA solver
  Determining occupation numbers for Kohn-Sham eigenstates.
  | Chemical potential (Fermi level) in eV                 : 0.23424908E+01
  | Error in electron count due to remaining E_F inaccuracy: 0.00000000E+00
  | Maximum occupation number of highest empty state:  0.00E+00

  Current spin moment of the entire structure :
  | N = N_up - N_down :    0.00
  | S                 :    0.00
  | J                 :    1.00

  Highest occupied state (VBM) at      0.89718134 eV
  | Occupation number:      1.00000000
  | Spin channel:        2
 * WARNING: The VBM is higher than the internal energy zero!

  Lowest unoccupied state (CBM) at     2.68787354 eV
  | Occupation number:      0.00000000
  | Spin channel:        1

  Overall HOMO-LUMO gap:      1.79069220 eV.

  Total energy components:
  | Sum of eigenvalues            :           0.04386433 Ha           1.19360919 eV
  | XC energy correction          :          -1.42809813 Ha         -38.86052734 eV
  | XC potential correction       :           1.84579237 Ha          50.22656602 eV
  | Free-atom electrostatic energy:          -0.34179210 Ha          -9.30063612 eV
  | Hartree energy correction     :          -1.71420902 Ha         -46.64600086 eV
  | van der Waals energy corr.    :           0.00000000 Ha           0.00000000 eV
  | Entropy correction            :           0.00000000 Ha           0.00000000 eV
  | ---------------------------
  | Total energy                  :          -1.59444254 Ha         -43.38698911 eV
  | Total energy, T -> 0          :          -1.59444254 Ha         -43.38698911 eV  <-- do not rely on this value for anything but (periodic) metals
  | Electronic free energy        :          -1.59444254 Ha         -43.38698911 eV

  Derived energy quantities:
  | Kinetic energy                :           2.24223157 Ha          61.01422527 eV
  | Electrostatic energy          :          -2.40857598 Ha         -65.54068704 eV
  | Energy correction for multipole
  | error in Hartree potential    :          -0.00161466 Ha          -0.04393727 eV
  | Sum of eigenvalues per atom                           :           0.59680459 eV
  | Total energy (T->0) per atom                          :         -21.69349456 eV  <-- do not rely on this value for anything but (periodic) metals
  | Electronic free energy per atom                       :         -21.69349456 eV

  Self-consistency convergence accuracy:
  | Change of charge/spin density : 0.9288E+00 0.5088E+00
  | Change of sum of eigenvalues  : -.2611E+00 eV
  | Change of total energy        : 0.1236E+01 eV

  End self-consistency iteration #     8       :  max(cpu_time)    wall_clock(cpu1)
  | Time for this iteration                    :        0.027 s           0.027 s
  | Charge density update                      :        0.007 s           0.006 s
  | Density mixing                             :        0.002 s           0.002 s
  | Hartree multipole update                   :        0.001 s           0.002 s
  | Hartree multipole summation                :        0.005 s           0.004 s
  | Integration                                :        0.010 s           0.010 s
  | Solution of K.-S. eqns.                    :        0.001 s           0.002 s
  | Total energy evaluation                    :        0.000 s           0.001 s
------------------------------------------------------------

------------------------------------------------------------
          Begin self-consistency iteration #    9

  Date     :  20220120, Time     :  152926.060
------------------------------------------------------------
  Evaluating new KS density.
  Integration grid: deviation in total charge (<rho> - N_e) =   1.222646E-08
  | <rho_up-rho_dn> = N_up-N_dn =      0.0855; <|rho_up-rho_dn|> =      2.1146
  Pulay mixing of updated and previous charge densities.

  Evaluating partitioned Hartree potential by multipole expansion.
  | Analytical far-field extrapolation by fixed multipoles:
  | Hartree multipole sum: apparent total charge =  -0.129271E-04
  Summing up the Hartree potential.
  Time summed over all CPUs for potential: real work        0.035 s, elapsed        0.041 s
  | RMS charge density error from multipole expansion :   0.727223E-02

  Integrating Hamiltonian matrix: batch-based integration.
  Time summed over all CPUs for integration: real work        0.069 s, elapsed        0.084 s

  Updating Kohn-Sham eigenvalues, eigenvectors, occupation numbers, and Fermi level.
  Solving generalized eigenproblem
  Solving real symmetric generalised eigenvalue problem by standard ScaLAPACK.
  Using Cholesky factor for transformation
  Using 1-stage real ELPA solver
  Solving real symmetric generalised eigenvalue problem by standard ScaLAPACK.
  Using Cholesky factor for transformation
  Using 1-stage real ELPA solver
  Determining occupation numbers for Kohn-Sham eigenstates.
  | Chemical potential (Fermi level) in eV                 : 0.10603744E+01
  | Error in electron count due to remaining E_F inaccuracy: 0.00000000E+00
  | Maximum occupation number of highest empty state:  0.00E+00

  Current spin moment of the entire structure :
  | N = N_up - N_down :    0.00
  | S                 :    0.00
  | J                 :    1.00

  Highest occupied state (VBM) at     -0.27000021 eV
  | Occupation number:      1.00000000
  | Spin channel:        2

  Lowest unoccupied state (CBM) at     1.30688407 eV
  | Occupation number:      0.00000000
  | Spin channel:        1

  Overall HOMO-LUMO gap:      1.57688427 eV.

  Total energy components:
  | Sum of eigenvalues            :          -0.04711682 Ha          -1.28211400 eV
  | XC energy correction          :          -1.38262768 Ha         -37.62321339 eV
  | XC potential correction       :           1.78672488 Ha          48.61925771 eV
  | Free-atom electrostatic energy:          -0.34179210 Ha          -9.30063612 eV
  | Hartree energy correction     :          -1.51768212 Ha         -41.29823160 eV
  | van der Waals energy corr.    :           0.00000000 Ha           0.00000000 eV
  | Entropy correction            :           0.00000000 Ha           0.00000000 eV
  | ---------------------------
  | Total energy                  :          -1.50249383 Ha         -40.88493741 eV
  | Total energy, T -> 0          :          -1.50249383 Ha         -40.88493741 eV  <-- do not rely on this value for anything but (periodic) metals
  | Electronic free energy        :          -1.50249383 Ha         -40.88493741 eV

  Derived energy quantities:
  | Kinetic energy                :           2.29394447 Ha          62.42140488 eV
  | Electrostatic energy          :          -2.41381062 Ha         -65.68312890 eV
  | Energy correction for multipole
  | error in Hartree potential    :          -0.00163189 Ha          -0.04440595 eV
  | Sum of eigenvalues per atom                           :          -0.64105700 eV
  | Total energy (T->0) per atom                          :         -20.44246870 eV  <-- do not rely on this value for anything but (periodic) metals
  | Electronic free energy per atom                       :         -20.44246870 eV

  Self-consistency convergence accuracy:
  | Change of charge/spin density : 0.8952E+00 0.4959E+00
  | Change of sum of eigenvalues  : -.2476E+01 eV
  | Change of total energy        : 0.2502E+01 eV

  End self-consistency iteration #     9       :  max(cpu_time)    wall_clock(cpu1)
  | Time for this iteration                    :        0.031 s           0.031 s
  | Charge density update                      :        0.009 s           0.008 s
  | Density mixing                             :        0.002 s           0.002 s
  | Hartree multipole update                   :        0.001 s           0.001 s
  | Hartree multipole summation                :        0.005 s           0.006 s
  | Integration                                :        0.011 s           0.010 s
  | Solution of K.-S. eqns.                    :        0.002 s           0.003 s
  | Total energy evaluation                    :        0.000 s           0.001 s
------------------------------------------------------------

------------------------------------------------------------
          Begin self-consistency iteration #   10

  Date     :  20220120, Time     :  152926.093
------------------------------------------------------------
  Evaluating new KS density.
  Integration grid: deviation in total charge (<rho> - N_e) =   1.586274E-08
  | <rho_up-rho_dn> = N_up-N_dn =     -0.0150; <|rho_up-rho_dn|> =      2.2085
  Pulay mixing of updated and previous charge densities.

  Evaluating partitioned Hartree potential by multipole expansion.
  | Analytical far-field extrapolation by fixed multipoles:
  | Hartree multipole sum: apparent total charge =  -0.534121E-04
  Summing up the Hartree potential.
  Time summed over all CPUs for potential: real work        0.035 s, elapsed        0.043 s
  | RMS charge density error from multipole expansion :   0.629931E-02

  Integrating Hamiltonian matrix: batch-based integration.
  Time summed over all CPUs for integration: real work        0.071 s, elapsed        0.092 s

  Updating Kohn-Sham eigenvalues, eigenvectors, occupation numbers, and Fermi level.
  Solving generalized eigenproblem
  Solving real symmetric generalised eigenvalue problem by standard ScaLAPACK.
  Using Cholesky factor for transformation
  Using 1-stage real ELPA solver
  Solving real symmetric generalised eigenvalue problem by standard ScaLAPACK.
  Using Cholesky factor for transformation
  Using 1-stage real ELPA solver
  Determining occupation numbers for Kohn-Sham eigenstates.
  | Chemical potential (Fermi level) in eV                 : -.33854790E+01
  | Error in electron count due to remaining E_F inaccuracy: 0.00000000E+00
  | Maximum occupation number of highest empty state:  0.00E+00

  Current spin moment of the entire structure :
  | N = N_up - N_down :    0.00
  | S                 :    0.00
  | J                 :    1.00

  Highest occupied state (VBM) at     -4.11341350 eV
  | Occupation number:      1.00000000
  | Spin channel:        2

  Lowest unoccupied state (CBM) at     0.02410537 eV
  | Occupation number:      0.00000000
  | Spin channel:        1

  Overall HOMO-LUMO gap:      4.13751887 eV.

  Total energy components:
  | Sum of eigenvalues            :          -0.35558892 Ha          -9.67606674 eV
  | XC energy correction          :          -1.14596144 Ha         -31.18319738 eV
  | XC potential correction       :           1.47862778 Ha          40.23550903 eV
  | Free-atom electrostatic energy:          -0.34179210 Ha          -9.30063612 eV
  | Hartree energy correction     :          -0.80728529 Ha         -21.96735035 eV
  | van der Waals energy corr.    :           0.00000000 Ha           0.00000000 eV
  | Entropy correction            :           0.00000000 Ha           0.00000000 eV
  | ---------------------------
  | Total energy                  :          -1.17199996 Ha         -31.89174155 eV
  | Total energy, T -> 0          :          -1.17199996 Ha         -31.89174155 eV  <-- do not rely on this value for anything but (periodic) metals
  | Electronic free energy        :          -1.17199996 Ha         -31.89174155 eV

  Derived energy quantities:
  | Kinetic energy                :           2.24664612 Ha          61.13435148 eV
  | Electrostatic energy          :          -2.27268464 Ha         -61.84289565 eV
  | Energy correction for multipole
  | error in Hartree potential    :          -0.00143893 Ha          -0.03915539 eV
  | Sum of eigenvalues per atom                           :          -4.83803337 eV
  | Total energy (T->0) per atom                          :         -15.94587078 eV  <-- do not rely on this value for anything but (periodic) metals
  | Electronic free energy per atom                       :         -15.94587078 eV

  Self-consistency convergence accuracy:
  | Change of charge/spin density : 0.8720E+00 0.4794E+00
  | Change of sum of eigenvalues  : -.8394E+01 eV
  | Change of total energy        : 0.8993E+01 eV

  End self-consistency iteration #    10       :  max(cpu_time)    wall_clock(cpu1)
  | Time for this iteration                    :        0.033 s           0.032 s
  | Charge density update                      :        0.008 s           0.007 s
  | Density mixing                             :        0.002 s           0.003 s
  | Hartree multipole update                   :        0.002 s           0.001 s
  | Hartree multipole summation                :        0.006 s           0.006 s
  | Integration                                :        0.012 s           0.012 s
  | Solution of K.-S. eqns.                    :        0.001 s           0.001 s
  | Total energy evaluation                    :        0.000 s           0.000 s
------------------------------------------------------------

------------------------------------------------------------
          Begin self-consistency iteration #   11

  Date     :  20220120, Time     :  152926.130
------------------------------------------------------------
  Evaluating new KS density.
  Integration grid: deviation in total charge (<rho> - N_e) =   1.941580E-08
  | <rho_up-rho_dn> = N_up-N_dn =     -0.0864; <|rho_up-rho_dn|> =      1.5583
  Pulay mixing of updated and previous charge densities.

  Evaluating partitioned Hartree potential by multipole expansion.
  | Analytical far-field extrapolation by fixed multipoles:
  | Hartree multipole sum: apparent total charge =  -0.135778E-03
  Summing up the Hartree potential.
  Time summed over all CPUs for potential: real work        0.034 s, elapsed        0.041 s
  | RMS charge density error from multipole expansion :   0.143327E-02

  Integrating Hamiltonian matrix: batch-based integration.
  Time summed over all CPUs for integration: real work        0.071 s, elapsed        0.088 s

  Updating Kohn-Sham eigenvalues, eigenvectors, occupation numbers, and Fermi level.
  Solving generalized eigenproblem
  Solving real symmetric generalised eigenvalue problem by standard ScaLAPACK.
  Using Cholesky factor for transformation
  Using 1-stage real ELPA solver
  Solving real symmetric generalised eigenvalue problem by standard ScaLAPACK.
  Using Cholesky factor for transformation
  Using 1-stage real ELPA solver
  Determining occupation numbers for Kohn-Sham eigenstates.
  | Chemical potential (Fermi level) in eV                 : -.22895372E+02
  | Error in electron count due to remaining E_F inaccuracy: 0.00000000E+00
  | Maximum occupation number of highest empty state:  0.00E+00

  Current spin moment of the entire structure :
  | N = N_up - N_down :    0.00
  | S                 :    0.00
  | J                 :    1.00

  Highest occupied state (VBM) at    -25.27279576 eV
  | Occupation number:      1.00000000
  | Spin channel:        2

  Lowest unoccupied state (CBM) at    -6.20163307 eV
  | Occupation number:      0.00000000
  | Spin channel:        1

  Overall HOMO-LUMO gap:     19.07116269 eV.

  Total energy components:
  | Sum of eigenvalues            :          -1.87844115 Ha         -51.11498427 eV
  | XC energy correction          :          -0.38847001 Ha         -10.57080672 eV
  | XC potential correction       :           0.49896408 Ha          13.57750354 eV
  | Free-atom electrostatic energy:          -0.34179210 Ha          -9.30063612 eV
  | Hartree energy correction     :           0.61993968 Ha          16.86941708 eV
  | van der Waals energy corr.    :           0.00000000 Ha           0.00000000 eV
  | Entropy correction            :           0.00000000 Ha           0.00000000 eV
  | ---------------------------
  | Total energy                  :          -1.48979948 Ha         -40.53950650 eV
  | Total energy, T -> 0          :          -1.48979948 Ha         -40.53950650 eV  <-- do not rely on this value for anything but (periodic) metals
  | Electronic free energy        :          -1.48979948 Ha         -40.53950650 eV

  Derived energy quantities:
  | Kinetic energy                :          -0.60101828 Ha         -16.35453940 eV
  | Electrostatic energy          :          -0.50031120 Ha         -13.61416038 eV
  | Energy correction for multipole
  | error in Hartree potential    :          -0.00022841 Ha          -0.00621536 eV
  | Sum of eigenvalues per atom                           :         -25.55749213 eV
[...]
  | Change of sum of eigenvalues  : -.2238E-04 eV
  | Change of total energy        : -.1881E-08 eV

  End self-consistency iteration #    31       :  max(cpu_time)    wall_clock(cpu1)
  | Time for this iteration                    :        0.028 s           0.027 s
  | Charge density update                      :        0.007 s           0.006 s
  | Density mixing                             :        0.002 s           0.002 s
  | Hartree multipole update                   :        0.001 s           0.001 s
  | Hartree multipole summation                :        0.005 s           0.005 s
  | Integration                                :        0.010 s           0.010 s
  | Solution of K.-S. eqns.                    :        0.001 s           0.002 s
  | Total energy evaluation                    :        0.000 s           0.001 s
------------------------------------------------------------

------------------------------------------------------------
          Begin self-consistency iteration #   32

  Date     :  20220120, Time     :  152926.760
------------------------------------------------------------
  Evaluating new KS density.
  Integration grid: deviation in total charge (<rho> - N_e) =  -1.630251E-12
  | <rho_up-rho_dn> = N_up-N_dn =      0.0000; <|rho_up-rho_dn|> =      0.0000
  Pulay mixing of updated and previous charge densities.

  Evaluating partitioned Hartree potential by multipole expansion.
  | Analytical far-field extrapolation by fixed multipoles:
  | Hartree multipole sum: apparent total charge =   0.548039E-06
  Summing up the Hartree potential.
  Time summed over all CPUs for potential: real work        0.034 s, elapsed        0.039 s
  | RMS charge density error from multipole expansion :   0.120513E-02

  Integrating Hamiltonian matrix: batch-based integration.
  Time summed over all CPUs for integration: real work        0.076 s, elapsed        0.083 s

  Updating Kohn-Sham eigenvalues, eigenvectors, occupation numbers, and Fermi level.
  Solving generalized eigenproblem
  Solving real symmetric generalised eigenvalue problem by standard ScaLAPACK.
  Using Cholesky factor for transformation
  Using 1-stage real ELPA solver
  Solving real symmetric generalised eigenvalue problem by standard ScaLAPACK.
  Using Cholesky factor for transformation
  Using 1-stage real ELPA solver
  Determining occupation numbers for Kohn-Sham eigenstates.
  | Chemical potential (Fermi level) in eV                 : -.87391750E+01
  | Error in electron count due to remaining E_F inaccuracy: 0.00000000E+00
  | Maximum occupation number of highest empty state:  0.00E+00

  Current spin moment of the entire structure :
  | N = N_up - N_down :    0.00
  | S                 :    0.00
  | J                 :    1.00

  Highest occupied state (VBM) at    -10.38612650 eV
  | Occupation number:      1.00000000
  | Spin channel:        1

  Lowest unoccupied state (CBM) at     0.54547712 eV
  | Occupation number:      0.00000000
  | Spin channel:        1

  Overall HOMO-LUMO gap:     10.93160361 eV.

  Total energy components:
  | Sum of eigenvalues            :          -0.76336627 Ha         -20.77225321 eV
  | XC energy correction          :          -0.69115608 Ha         -18.80731389 eV
  | XC potential correction       :           0.88726131 Ha          24.14360871 eV
  | Free-atom electrostatic energy:          -0.34179210 Ha          -9.30063612 eV
  | Hartree energy correction     :          -0.25762416 Ha          -7.01030998 eV
  | van der Waals energy corr.    :           0.00000000 Ha           0.00000000 eV
  | Entropy correction            :           0.00000000 Ha           0.00000000 eV
  | ---------------------------
  | Total energy                  :          -1.16667730 Ha         -31.74690449 eV
  | Total energy, T -> 0          :          -1.16667730 Ha         -31.74690449 eV  <-- do not rely on this value for anything but (periodic) metals
  | Electronic free energy        :          -1.16667730 Ha         -31.74690449 eV

  Derived energy quantities:
  | Kinetic energy                :           1.14168552 Ha          31.06684359 eV
  | Electrostatic energy          :          -1.61720673 Ha         -44.00643419 eV
  | Energy correction for multipole
  | error in Hartree potential    :          -0.00009478 Ha          -0.00257922 eV
  | Sum of eigenvalues per atom                           :         -10.38612661 eV
  | Total energy (T->0) per atom                          :         -15.87345224 eV  <-- do not rely on this value for anything but (periodic) metals
  | Electronic free energy per atom                       :         -15.87345224 eV

  Self-consistency convergence accuracy:
  | Change of charge/spin density : 0.3593E-06 0.3396E-06
  | Change of sum of eigenvalues  : -.1081E-04 eV
  | Change of total energy        : -.2347E-09 eV

  End self-consistency iteration #    32       :  max(cpu_time)    wall_clock(cpu1)
  | Time for this iteration                    :        0.029 s           0.029 s
  | Charge density update                      :        0.007 s           0.007 s
  | Density mixing                             :        0.002 s           0.002 s
  | Hartree multipole update                   :        0.001 s           0.001 s
  | Hartree multipole summation                :        0.005 s           0.005 s
  | Integration                                :        0.010 s           0.011 s
  | Solution of K.-S. eqns.                    :        0.002 s           0.002 s
  | Total energy evaluation                    :        0.000 s           0.001 s
------------------------------------------------------------

------------------------------------------------------------
          Begin self-consistency iteration #   33

  Date     :  20220120, Time     :  152926.791
------------------------------------------------------------
  Evaluating new KS density.
  Integration grid: deviation in total charge (<rho> - N_e) =  -3.532730E-13
  | <rho_up-rho_dn> = N_up-N_dn =     -0.0000; <|rho_up-rho_dn|> =      0.0000
  Pulay mixing of updated and previous charge densities.

  Evaluating partitioned Hartree potential by multipole expansion.
  | Analytical far-field extrapolation by fixed multipoles:
  | Hartree multipole sum: apparent total charge =   0.548018E-06
  Summing up the Hartree potential.
  Time summed over all CPUs for potential: real work        0.039 s, elapsed        0.044 s
  | RMS charge density error from multipole expansion :   0.120513E-02

  Integrating Hamiltonian matrix: batch-based integration.
  Time summed over all CPUs for integration: real work        0.074 s, elapsed        0.078 s

  Updating Kohn-Sham eigenvalues, eigenvectors, occupation numbers, and Fermi level.
  Solving generalized eigenproblem
  Solving real symmetric generalised eigenvalue problem by standard ScaLAPACK.
  Using Cholesky factor for transformation
  Using 1-stage real ELPA solver
  Solving real symmetric generalised eigenvalue problem by standard ScaLAPACK.
  Using Cholesky factor for transformation
  Using 1-stage real ELPA solver
  Determining occupation numbers for Kohn-Sham eigenstates.
  | Chemical potential (Fermi level) in eV                 : -.87392903E+01
  | Error in electron count due to remaining E_F inaccuracy: 0.00000000E+00
  | Maximum occupation number of highest empty state:  0.00E+00

  Current spin moment of the entire structure :
  | N = N_up - N_down :    0.00
  | S                 :    0.00
  | J                 :    1.00

  Highest occupied state (VBM) at    -10.38612880 eV
  | Occupation number:      1.00000000
  | Spin channel:        1

  Lowest unoccupied state (CBM) at     0.54546868 eV
  | Occupation number:      0.00000000
  | Spin channel:        1

  Overall HOMO-LUMO gap:     10.93159748 eV.

  Total energy components:
  | Sum of eigenvalues            :          -0.76336644 Ha         -20.77225767 eV
  | XC energy correction          :          -0.69115601 Ha         -18.80731196 eV
  | XC potential correction       :           0.88726122 Ha          24.14360628 eV
  | Free-atom electrostatic energy:          -0.34179210 Ha          -9.30063612 eV
  | Hartree energy correction     :          -0.25762397 Ha          -7.01030501 eV
  | van der Waals energy corr.    :           0.00000000 Ha           0.00000000 eV
  | Entropy correction            :           0.00000000 Ha           0.00000000 eV
  | ---------------------------
  | Total energy                  :          -1.16667730 Ha         -31.74690449 eV
  | Total energy, T -> 0          :          -1.16667730 Ha         -31.74690449 eV  <-- do not rely on this value for anything but (periodic) metals
  | Electronic free energy        :          -1.16667730 Ha         -31.74690449 eV

  Derived energy quantities:
  | Kinetic energy                :           1.14168535 Ha          31.06683895 eV
  | Electrostatic energy          :          -1.61720663 Ha         -44.00643148 eV
  | Energy correction for multipole
  | error in Hartree potential    :          -0.00009479 Ha          -0.00257923 eV
  | Sum of eigenvalues per atom                           :         -10.38612884 eV
  | Total energy (T->0) per atom                          :         -15.87345224 eV  <-- do not rely on this value for anything but (periodic) metals
  | Electronic free energy per atom                       :         -15.87345224 eV

  Self-consistency convergence accuracy:
  | Change of charge/spin density : 0.8350E-07 0.3007E-07
  | Change of sum of eigenvalues  : -.4460E-05 eV
  | Change of total energy        : -.6606E-10 eV

  Writing Kohn-Sham eigenvalues.

  Spin-up eigenvalues:

  State    Occupation    Eigenvalue [Ha]    Eigenvalue [eV]
      1       1.00000          -0.381683          -10.38613
      2       0.00000           0.020046            0.54547
      3       0.00000           0.046176            1.25651
      4       0.00000           0.165678            4.50832
      5       0.00000           0.318012            8.65355
      6       0.00000           0.318012            8.65355
      7       0.00000           0.366907            9.98406
      8       0.00000           0.563426           15.33162
      9       0.00000           0.756937           20.59729
     10       0.00000           0.768185           20.90338
     11       0.00000           0.768185           20.90338

  Spin-down eigenvalues:

  State    Occupation    Eigenvalue [Ha]    Eigenvalue [eV]
      1       1.00000          -0.381683          -10.38613
      2       0.00000           0.020046            0.54547
      3       0.00000           0.046176            1.25652
      4       0.00000           0.165678            4.50833
      5       0.00000           0.318012            8.65355
      6       0.00000           0.318012            8.65355
      7       0.00000           0.366908            9.98407
      8       0.00000           0.563427           15.33162
      9       0.00000           0.756937           20.59730
     10       0.00000           0.768185           20.90338
     11       0.00000           0.768185           20.90338

  Current spin moment of the entire structure :
  | N = N_up - N_down :    0.00
  | S                 :    0.00
  | J                 :    1.00

  Highest occupied state (VBM) at    -10.38612880 eV
  | Occupation number:      1.00000000
  | Spin channel:        1

  Lowest unoccupied state (CBM) at     0.54546868 eV
  | Occupation number:      0.00000000
  | Spin channel:        1

  Overall HOMO-LUMO gap:     10.93159748 eV.

  Self-consistency cycle converged.

  End self-consistency iteration #    33       :  max(cpu_time)    wall_clock(cpu1)
  | Time for this iteration                    :        0.030 s           0.031 s
  | Charge density update                      :        0.008 s           0.007 s
  | Density mixing                             :        0.002 s           0.002 s
  | Hartree multipole update                   :        0.002 s           0.002 s
  | Hartree multipole summation                :        0.006 s           0.006 s
  | Integration                                :        0.010 s           0.010 s
  | Solution of K.-S. eqns.                    :        0.001 s           0.002 s
  | Total energy evaluation                    :        0.000 s           0.000 s
------------------------------------------------------------
  Obtaining max. number of non-zero basis functions in each batch .
  Evaluating KS electron density on previously omitted grid points.
  Evaluating non-empirical van der Waals correction (Tkatchenko/Scheffler 2009).
  Performing Hirshfeld analysis of fragment charges and moments.
  ----------------------------------------------------------------------
  | Atom     1: H
  |   Hirshfeld charge        :     -0.00000043
  |   Free atom volume        :     10.31539447
  |   Hirshfeld volume        :      5.30951861
  |   Hirshfeld spin moment   :      0.00000011
  |   Hirshfeld dipole vector :     -0.00000000      -0.00000000      -0.08071069
  |   Hirshfeld dipole moment :      0.08071069
  |   Hirshfeld second moments:      0.12030985      -0.00000000      -0.00000000
  |                                 -0.00000000       0.12030985       0.00000000
  |                                 -0.00000000       0.00000000       0.11991756
  ----------------------------------------------------------------------
  | Atom     2: H
  |   Hirshfeld charge        :     -0.00000043
  |   Free atom volume        :     10.31539447
  |   Hirshfeld volume        :      5.30951861
  |   Hirshfeld spin moment   :      0.00000011
  |   Hirshfeld dipole vector :     -0.00000000      -0.00000000       0.08071069
  |   Hirshfeld dipole moment :      0.08071069
  |   Hirshfeld second moments:      0.12030985      -0.00000000       0.00000000
  |                                 -0.00000000       0.12030985       0.00000000
  |                                  0.00000000       0.00000000       0.11991756
  ----------------------------------------------------------------------


  Total energy components:
  | Sum of eigenvalues            :          -0.76336644 Ha         -20.77225767 eV
  | XC energy correction          :          -0.69115601 Ha         -18.80731196 eV
  | XC potential correction       :           0.88726122 Ha          24.14360628 eV
  | Free-atom electrostatic energy:          -0.34179210 Ha          -9.30063612 eV
  | Hartree energy correction     :          -0.25762397 Ha          -7.01030501 eV
  | van der Waals energy corr.    :          -0.00000019 Ha          -0.00000515 eV
  | Entropy correction            :           0.00000000 Ha           0.00000000 eV
  | ---------------------------
  | Total energy                  :          -1.16667749 Ha         -31.74690964 eV
  | Total energy, T -> 0          :          -1.16667749 Ha         -31.74690964 eV  <-- do not rely on this value for anything but (periodic) metals
  | Electronic free energy        :          -1.16667749 Ha         -31.74690964 eV

  Derived energy quantities:
  | Kinetic energy                :           1.14168535 Ha          31.06683895 eV
  | Electrostatic energy          :          -1.61720663 Ha         -44.00643148 eV
  | Energy correction for multipole
  | error in Hartree potential    :          -0.00009479 Ha          -0.00257923 eV
  | Sum of eigenvalues per atom                           :         -10.38612884 eV
  | Total energy (T->0) per atom                          :         -15.87345482 eV  <-- do not rely on this value for anything but (periodic) metals
  | Electronic free energy per atom                       :         -15.87345482 eV
  Timings for VdW correction (Tkatchenko-Scheffler 2009 or later):
  | CPU time:        0.004 s, Wall clock time:        0.003 s.

  Energy and forces in a compact form:
  | Total energy uncorrected      :         -0.317469096350969E+02 eV
  | Total energy corrected        :         -0.317469096350969E+02 eV  <-- do not rely on this value for anything but (periodic) metals
  | Electronic free energy        :         -0.317469096350969E+02 eV

  ------------------------------------ 
  Start decomposition of the XC Energy 
  ------------------------------------ 
  Hartree-Fock part   :          0.000000000 Ha              0.000000000 eV
  ------------------------------------ 
  X Energy            :         -0.648229317 Ha            -17.639217193 eV
  C Energy GGA        :         -0.042926694 Ha             -1.168094766 eV
  Total XC Energy     :         -0.691156011 Ha            -18.807311959 eV
  LDA X and C from self-consistent density 
  X Energy LDA        :         -0.566837447 Ha            -15.424431713 eV
  C Energy LDA        :         -0.094508853 Ha             -2.571716737 eV
  ------------------------------------ 
  End decomposition of the XC Energy 
  ------------------------------------ 

------------------------------------------------------------------------------
  Final output of selected total energy values:

  The following output summarizes some interesting total energy values
  at the end of a run (AFTER all relaxation, molecular dynamics, etc.).

  | Total energy of the DFT / Hartree-Fock s.c.f. calculation      :            -31.746909635 eV
  | Final zero-broadening corrected energy (caution - metals only) :            -31.746909635 eV
  | For reference only, the value of 1 Hartree used in FHI-aims is :             27.211384500 eV

  Before relying on these values, please be sure to understand exactly which
  total energy value is referred to by a given number. Different objects may
  all carry the same name 'total energy'. Definitions:

  Total energy of the DFT / Hartree-Fock s.c.f. calculation:
  | Note that this energy does not include ANY quantities calculated after the
  | s.c.f. cycle, in particular not ANY RPA, MP2, etc. many-body perturbation terms.

  Final zero-broadening corrected energy:
  | For metallic systems only, a broadening of the occupation numbers at the Fermi
  | level can be extrapolated back to zero broadening by an electron-gas inspired
  | formula. For all systems that are not real metals, this value can be
  | meaningless and should be avoided.

------------------------------------------------------------------------------

------------------------------------------------------------
          Leaving FHI-aims.
          Date     :  20220120, Time     :  152926.832

          Computational steps:
          | Number of self-consistency cycles          :           33

          Detailed time accounting                     :  max(cpu_time)    wall_clock(cpu1)
          | Total time                                 :        1.105 s           1.259 s
          | Preparation time                           :        0.081 s           0.081 s
          | Grid partitioning                          :        0.007 s           0.007 s
          | Preloading free-atom quantities on grid    :        0.004 s           0.003 s
          | Free-atom superposition energy             :        0.003 s           0.003 s
          | Total time for integrations                :        0.341 s           0.342 s
          | Total time for solution of K.-S. equations :        0.059 s           0.066 s
          | Total time for density update              :        0.232 s           0.206 s
          | Total time for mixing                      :        0.061 s           0.059 s
          | Total time for Hartree multipole update    :        0.046 s           0.053 s
          | Total time for Hartree multipole sum       :        0.163 s           0.163 s
          | Total time for total energy evaluation     :        0.006 s           0.023 s
          | Total time for scaled ZORA corrections     :        0.000 s           0.000 s
          | Total time for vdW correction              :        0.004 s           0.003 s

          Have a nice day.
------------------------------------------------------------
