  MPI-parallelism will be employed.
------------------------------------------------------------
          Invoking FHI-aims ...
          Version 052014
          Git rev. (modified): 096c982 Merge branch master of fhiaims:/pub/localo[...]
          Compiled on 2016/12/16 at 15:22:01 on host login02.hpc.iitd.ac.in.

          When using FHI-aims, please cite the following reference:

          Volker Blum, Ralf Gehrke, Felix Hanke, Paula Havu,
          Ville Havu, Xinguo Ren, Karsten Reuter, and Matthias Scheffler,
          'Ab Initio Molecular Simulations with Numeric Atom-Centered Orbitals: FHI-aims',
          Computer Physics Communications 180, 2175-2196 (2009)

          For any questions about FHI-aims, please visit the aimsclub website
          with its forums and wiki. Contributions to both the forums and the
          wiki are warmly encouraged - they are for you, and everyone is welcome there.

------------------------------------------------------------

  Date     :  20220120, Time     :  151810.744
  Time zero on CPU 1             :   0.139600000000000E-01  s.
  Internal wall clock time zero  :           411923890.744  s.

  Using        8 parallel tasks.
  Task        0 on host csky021 reporting.
  Task        1 on host csky021 reporting.
  Task        2 on host csky021 reporting.
  Task        3 on host csky021 reporting.
  Task        4 on host csky021 reporting.
  Task        5 on host csky021 reporting.
  Task        6 on host csky021 reporting.
  Task        7 on host csky021 reporting.

  Performing system and environment tests:
  | Environment variable OMP_NUM_THREADS correctly set to 1.
  | Stacksize not measured: no C compiler
  | Checking for scalapack...
  | Testing pdtran()...
  | All pdtran() tests passed.

  Obtaining array dimensions for all initial allocations:
  
  -----------------------------------------------------------------------
  Parsing control.in (first pass over file, find array dimensions only).
  The contents of control.in will be repeated verbatim below
  unless switched off by setting 'verbatim_writeout .false.' .
  in the first line of control.in .
  -----------------------------------------------------------------------
  
    xc               pbe
    spin             collinear
    default_initial_moment hund
    relativistic     atomic_zora scalar 1e-9
    occupation_type  gaussian 0.001
    charge        0
    vdw_correction_hirshfeld
    KS_method        scalapack_fast
    mixer            pulay
    charge_mix_param  0.4
    spin_mix_param    0.6
    sc_accuracy_rho  1E-4
    sc_accuracy_eev  1E-5
    sc_accuracy_etot 1E-5
    sc_iter_limit    100
    empty_states     10
  ################################################################################
  #
  #  FHI-aims code project
  # Volker Blum, Fritz Haber Institute Berlin, 2009
  #
  #  Suggested "tight" defaults for H atom (to be pasted into control.in file)
  #
  ################################################################################
    species        H
  #     global species definitions
      nucleus             1
      mass                1.00794
  #
      l_hartree           6
  #
      cut_pot             4.0  2.0  1.0
      basis_dep_cutoff    1e-4
  #
      radial_base         24 7.0
      radial_multiplier   2
      angular_grids       specified
        division   0.1930   50
        division   0.3175  110
        division   0.4293  194
        division   0.5066  302
        division   0.5626  434
  #      division   0.5922  590
  #      division   0.6227  974
  #      division   0.6868 1202
  #      outer_grid  770
        outer_grid  434
  ################################################################################
  #
  #  Definition of "minimal" basis
  #
  ################################################################################
  #     valence basis states
      valence      1  s   1.
  #     ion occupancy
      ion_occ      1  s   0.5
  ################################################################################
  #
  #  Suggested additional basis functions. For production calculations,
  #  uncomment them one after another (the most important basis functions are
  #  listed first).
  #
  #  Basis constructed for dimers: 0.5 A, 0.7 A, 1.0 A, 1.5 A, 2.5 A
  #
  ################################################################################
  #  "First tier" - improvements: -1014.90 meV to -62.69 meV
       hydro 2 s 2.1
       hydro 2 p 3.5
  #  "Second tier" - improvements: -12.89 meV to -1.83 meV
       hydro 1 s 0.85
       hydro 2 p 3.7
       hydro 2 s 1.2
       hydro 3 d 7
  #  "Third tier" - improvements: -0.25 meV to -0.12 meV
  #     hydro 4 f 11.2
  #     hydro 3 p 4.8
  #     hydro 4 d 9
  #     hydro 3 s 3.2
  ################################################################################
  #
  # For methods that use the localized form of the "resolution of identity" for
  # the two-electron Coulomb operator (RI_method LVL), particularly Hartree-Fock and
  # hybrid density functional calculations, the highest accuracy can be obtained by
  # uncommenting the line beginning with "for_aux"  below, thus adding an extra g radial
  # function to the construction of the product basis set for the expansion.
  # See Ref. New J. Phys. 17, 093020 (2015) for more information, particularly Figs. 1 and 6.
  #
  ################################################################################
  #
  # for_aux hydro 5 g 6.0
  
  -----------------------------------------------------------------------
  Completed first pass over input file control.in .
  -----------------------------------------------------------------------
  
  
  -----------------------------------------------------------------------
  Parsing geometry.in (first pass over file, find array dimensions only).
  The contents of geometry.in will be repeated verbatim below
  unless switched off by setting 'verbatim_writeout .false.' .
  in the first line of geometry.in .
  -----------------------------------------------------------------------
  
  atom 0 0 0 H
  atom 0 0 0.83 H
  
  -----------------------------------------------------------------------
  Completed first pass over input file geometry.in .
  -----------------------------------------------------------------------
  

  Basic array size parameters:
  | Number of species                 :        1
  | Number of atoms                   :        2
  | Max. basis fn. angular momentum   :        2
  | Max. atomic/ionic basis occupied n:        1
  | Max. number of basis fn. types    :        2
  | Max. radial fns per species/type  :        6
  | Max. logarithmic grid size        :     1131
  | Max. radial integration grid size :       49
  | Max. angular integration grid size:      434
  | Max. angular grid division number :        8
  | Radial grid for Hartree potential :     1131
  | Number of spin channels           :        2

------------------------------------------------------------
          Reading file control.in.
------------------------------------------------------------
  XC: Using PBE gradient-corrected functionals.
  Spin treatment: Spin density functional theory - collinear spins.
  Initial spin moment per atom set according to Hund's rules.
  Scalar relativistic treatment of kinetic energy: on-site free-atom approximation to ZORA.
  Occupation type: Gaussian broadening, width =   0.100000E-02 eV.
  Charge =   0.000000E+00: Neutral system requested explicitly.
  Using non-empirical van der Waals correction (Hirshfeld partitioning):
  Kohn-Sham eigenvalues and eigenfunctions calculated by the ELPA eigensolver library.
  Using pulay charge density mixing.
  Charge density mixing - mixing parameter:     0.4000
  Spin density mixing - mixing parameter:     0.6000
  Convergence accuracy of self-consistent charge density: 0.1000E-03
  Convergence accuracy of sum of eigenvalues: 0.1000E-04
  Convergence accuracy of total energy: 0.1000E-04
  Maximum number of s.-c. iterations  :   100
  Number of empty states per atom:       10
 
  Reading configuration options for species H                   .
  | Found nuclear charge :   1.0000
  | Found atomic mass :    1.00794000000000      amu
  | Found l_max for Hartree potential  :   6
  | Found cutoff potl. onset [A], width [A], scale factor :    4.00000    2.00000    1.00000
  | Threshold for basis-dependent cutoff potential is   0.100000E-03
  | Found data for basic radial integration grid :    24 points, outermost radius =    7.000 A
  | Found multiplier for basic radial grid :   2
  | Found angular grid specification: user-specified.
  | Specified grid contains     6 separate shells.
  | Check grid settings after all constraints further below.
  | Found free-atom valence shell :  1 s   1.000
  | No ionic wave fns used. Skipping ion_occ.
  | Found hydrogenic basis function :  2 s   2.100
  | Found hydrogenic basis function :  2 p   3.500
  | Found hydrogenic basis function :  1 s   0.850
  | Found hydrogenic basis function :  2 p   3.700
  | Found hydrogenic basis function :  2 s   1.200
  | Found hydrogenic basis function :  3 d   7.000
  Species H                   : Missing cutoff potential type.
  Defaulting to exp(1/x)/(1-x)^2 type cutoff potential.
  Species H : No 'logarithmic' tag. Using default grid for free atom:
  | Default logarithmic grid data [bohr] : 0.1000E-03 0.1000E+03 0.1012E+01
  Species H : On-site basis accuracy parameter (for Gram-Schmidt orthonormalisation) not specified.
  Using default value basis_acc =  0.1000000E-03.
  Species H                   : Using default innermost maximum threshold i_radial=  2 for radial functions.
  Species H                   : Default cutoff onset for free atom density etc. : 0.40000000E+01 AA.
  Species H                   : Basic radial grid will be enhanced according to radial_multiplier =   2, to contain    49 grid points.
 
  Finished reading input file 'control.in'. Consistency checks are next.
 
  Target number of points in a grid batch is not set. Defaulting to  100
  Method for grid partitioning is not set. Defaulting to parallel hash+maxmin partitioning.
  Batch size limit is not set. Defaulting to    200
  By default, will store active basis functions for each batch.
  If in need of memory, prune_basis_once .false. can be used to disable this option.
  communication_type for Hartree potential was not specified.
  Defaulting to calc_hartree .
  Pulay mixer: Number of relevant iterations not set.
  Defaulting to    8 iterations.
  Pulay mixer: Number of initial linear mixing iterations not set.
  Defaulting to    0 iterations.
  Work space size for distributed Hartree potential not set.
  Defaulting to   0.200000E+03 MB.
  Algorithm-dependent basis array size parameters:
  | n_max_pulay                         :        8
  Calculation of forces was not defined in control.in. No forces will be calculated.
  Geometry relaxation not requested: no relaxation will be performed.
  No accuracy limit for integral partition fn. given. Defaulting to 0.1000E-14.
  No threshold value for u(r) in integrations given. Defaulting to 0.1000E-05.
  No accuracy for occupation numbers given. Defaulting to 0.1000E-07.
  No threshold value for occupation numbers given. Defaulting to 0.0000E+00.
  No accuracy for fermi level given. Defaulting to 0.1000E-19.
  Maximum # of iterations to find E_F not set. Defaulting to  200.
  Will not use alltoall communication since running on < 1024 CPUs.
  Threshold for basis singularities not set.
  Default threshold for basis singularities: 0.1000E-04
  partition_type (choice of integration weights) for integrals was not specified.
  | Using a version of the partition function of Stratmann and coworkers ('stratmann_smoother').
  | At each grid point, the set of atoms used to build the partition table is smoothly restricted to
  | only those atoms whose free-atom density would be non-zero at that grid point.
  Partitioning for Hartree potential was not defined. Using partition_type for integrals.
  | Adjusted default value of keyword multip_moments_threshold to:       0.10000000E-11
  | This value may affect high angular momentum components of the Hartree potential in periodic systems.
  No q(lm)/r^(l+1) cutoff set for long-range Hartree potential.
  | Using default value of  0.100000E-09 .
  | Verify using the multipole_threshold keyword.
  Defaulting to new monopole extrapolation.
  Density update method: automatic selection selected.
------------------------------------------------------------


------------------------------------------------------------
          Reading geometry description geometry.in.
------------------------------------------------------------
  Input structure read successfully.
  The structure contains        2 atoms,  and a total of          2.000 electrons.

  Input geometry:
  | No unit cell requested.
  | Atomic structure:
  |       Atom                x [A]            y [A]            z [A]
  |    1: Species H              0.000000         0.000000         0.000000
  |    2: Species H              0.000000         0.000000         0.830000
  |

  | The smallest distance between any two atoms is         0.83000000 AA.
  |
  | The first atom of this pair is atom number                      1 .
  | The second atom of this pair is atom number                     2 .

  Initial moments and charges:
  |  Atom   Moment         Charge        Species
  |     1  (Hund's rule)   0.000000E+00   H
  |     2  (Hund's rule)   0.000000E+00   H

  Structure-dependent array size parameters: 
  | Number of distinct atom types in initial rho :        1
  | Maximum number of distinct radial functions  :        7
  | Maximum number of basis functions            :       30
  | Number of Kohn-Sham states (occupied + empty):       11
------------------------------------------------------------

------------------------------------------------------------
          Preparing all fixed parts of the calculation.
------------------------------------------------------------
  Determining machine precision:
    2.225073858507201E-308
  Setting up grids for atomic and cluster calculations.

  Creating wave function, potential, and density for free atoms.

  Species: H

  List of occupied orbitals and eigenvalues:
    n    l              occ      energy [Ha]    energy [eV]
    1    0           1.0000        -0.238386        -6.4868

  Spin-polarized or charged system:
  Charge density initialized according to selected moments and charges.

  Creating spin-polarized density from free atoms.

  Species: H
  Charge:   0.000000
  applying Hund's rules ...

  List of occupied orbitals and eigenvalues:
    n    l      energy [Ha]    energy [eV]    occupation
  Spin-up
    1    0        -0.278991        -7.5917     1.00000000
  Spin-down
    1    0         0.090850         2.4721     0.00000000

  Creating fixed part of basis set: Ionic, confined, hydrogenic.
 
  H                    hydrogenic:
 
  List of hydrogenic basis orbitals: 
    n    l      effective z      eigenvalue [eV]  inner max. [A]     outer max. [A]     outer radius [A]   
    2    0         2.100000       -14.9965           0.193243           1.317208           5.373006
    2    1         3.500000       -41.6672           0.602369           0.602369           4.056063
    1    0         0.850000        -9.8292           0.624871           0.624871           5.373006
    2    1         3.700000       -46.5653           0.573622           0.573622           3.910002
    2    0         1.200000        -4.5995           0.334980           2.228188           5.505995
    3    2         7.000000       -74.0753           0.680699           0.680699           3.769201
 

  Adding cutoff potential to free-atom effective potential.
  Creating atomic-like basis functions for current effective potential.

  Species H                   :

  List of atomic basis orbitals and eigenvalues:
    n    l      energy [Ha]    energy [eV]    outer radius [A]
    1    0        -0.238386        -6.4868       5.373006

  Assembling full basis from fixed parts.
  | Species H :   atomic orbital   1 s accepted.
  | Species H :    hydro orbital   2 s accepted.
  | Species H :    hydro orbital   1 s accepted.
  | Species H :    hydro orbital   2 s accepted.
  | Species H :    hydro orbital   2 p accepted.
  | Species H :    hydro orbital   2 p accepted.
  | Species H :    hydro orbital   3 d accepted.
 
  Basis size parameters after reduction:
  | Total number of radial functions:        7
  | Total number of basis functions :       30
 
  Testing on-site integration grid accuracy.
  |  Species  Function  <phi|h_atom|phi> (log., in eV)  <phi|h_atom|phi> (rad., in eV)
           1        1                 -6.4870767962                 -6.4871688290
           1        2                 13.5032046589                 13.5028982997
           1        3                 32.8195184817                 32.8119941656
           1        4                 33.8513856511                 33.7670005767 ***
           1        5                 28.8544614965                 28.8544615203
           1        6                 59.6326952547                 59.6327656460
           1        7                 60.2719308513                 60.2719305949
 * Note: Onsite integrals marked "***" above are less accurate than
 * onsite_accuracy_threshold =    0.03000 eV. Usually, this is harmless.
 * When in doubt, tighten the "radial" and/or "radial_multiplier" flags to check.

  Preparing densities etc. for the partition functions (integrals / Hartree potential).

  Preparations completed.
  max(cpu_time)          :      0.077 s.
  Wall clock time (cpu1) :      0.078 s.
------------------------------------------------------------

------------------------------------------------------------
          Begin self-consistency loop: Initialization.

          Date     :  20220120, Time     :  151810.919
------------------------------------------------------------

  Initializing index lists of integration centers etc. from given atomic structure:
  | Number of centers in hartree potential         :         2
  | Number of centers in hartree multipole         :         2
  | Number of centers in electron density summation:         2
  | Number of centers in basis integrals           :         2
  | Number of centers in integrals                 :         2
  Using modified Scalapack Eigenvalue solver (ELPA)
  * Using 8 tasks for Scalapack Eigenvalue solver.
  Detailed listing of tasks and assigned k-points:
  (for non-periodic systems, the "k-point" denotes an internal label only)
   Task     0 k-point     1 on csky021
   Task     1 k-point     1 on csky021
   Task     2 k-point     1 on csky021
   Task     3 k-point     1 on csky021
   Task     4 k-point     1 on csky021
   Task     5 k-point     1 on csky021
   Task     6 k-point     1 on csky021
   Task     7 k-point     1 on csky021
  Tasks:     8 split into      4 X      2 BLACS grid
  Calculating blocksize based on n_basis =           30 max_nprow =            4 max_npcol =            2
  Scalapack blocksize set to:            4
  Required Scalapack workspace - INTEGER:            1 REAL:             1
  Partitioning the integration grid into batches with parallel hashing+maxmin method.
  | Number of batches:      444
  | Maximal batch size:     198
  | Minimal batch size:      49
  | Average batch size:      65.090
  | Standard deviation of batch sizes:      18.620

  Integration load balanced across     8 MPI tasks.
  Work distribution over tasks is as follows:
  Task     0 has       3680 integration points.
  Task     1 has       3640 integration points.
  Task     2 has       3591 integration points.
  Task     3 has       3587 integration points.
  Task     4 has       3623 integration points.
  Task     5 has       3614 integration points.
  Task     6 has       3580 integration points.
  Task     7 has       3585 integration points.
  Initializing partition tables, free-atom densities, potentials, etc. across the integration grid (initialize_grid_storage).
  | initialize_grid_storage: Actual outermost partition radius vs. multipole_radius_free
  | (-- VB: in principle, multipole_radius_free should be larger, hence this output)
  | Species        1: outer_partition_radius =              6.000000000000000 AA, multipole_radius_free =              6.071692442739658 AA.
  | Original list of interatomic distances with           2 x          2 entries is created.
  | Net number of integration points:    28900
  | of which are non-zero points    :    26766
  Obtaining max. number of non-zero basis functions in each batch (get_n_compute_maxes).
  | Maximal number of non-zero basis functions:       30 in task     0
  | Maximal number of non-zero basis functions:       30 in task     1
  | Maximal number of non-zero basis functions:       30 in task     2
  | Maximal number of non-zero basis functions:       30 in task     3
  | Maximal number of non-zero basis functions:       30 in task     4
  | Maximal number of non-zero basis functions:       30 in task     5
  | Maximal number of non-zero basis functions:       30 in task     6
  | Maximal number of non-zero basis functions:       30 in task     7
  Selecting the method for density update.
  Loop over occupied states selected for charge density update.
  Integrating Hamiltonian matrix: batch-based integration.
  Time summed over all CPUs for integration: real work        0.083 s, elapsed        0.088 s
  Integrating overlap matrix.
  Time summed over all CPUs for integration: real work        0.021 s, elapsed        0.029 s
  Deallocating overlap matrix.

  Updating Kohn-Sham eigenvalues, eigenvectors, occupation numbers, and Fermi level.
  Solving generalized eigenproblem
  Solving real symmetric generalised eigenvalue problem by standard ScaLAPACK.
  Transforming overlap matrix with ScaLAPACK and checking for singularities.
  : Overlap matrix is nonsingular, using Cholesky decomposition
  | Lowest eigenvalue:  0.428170E-03
  Factoring overlap matrix with Cholesky decomposition
  Using Cholesky factor for transformation
  Using 1-stage real ELPA solver
  Solving real symmetric generalised eigenvalue problem by standard ScaLAPACK.
  Using Cholesky factor for transformation
  Using 1-stage real ELPA solver
  Determining occupation numbers for Kohn-Sham eigenstates.
  | Chemical potential (Fermi level) in eV                 : -.90173273E+00
  | Error in electron count due to remaining E_F inaccuracy: 0.00000000E+00
  | Maximum occupation number of highest empty state:  0.00E+00

  Writing Kohn-Sham eigenvalues.

  Spin-up eigenvalues:

  State    Occupation    Eigenvalue [Ha]    Eigenvalue [eV]
      1       1.00000          -0.550222          -14.97229
      2       1.00000          -0.073644           -2.00397
      3       0.00000           0.012278            0.33409
      4       0.00000           0.098228            2.67291
      5       0.00000           0.213964            5.82226
      6       0.00000           0.213964            5.82226
      7       0.00000           0.309909            8.43304
      8       0.00000           0.442349           12.03692
      9       0.00000           0.631798           17.19210
     10       0.00000           0.657587           17.89386
     11       0.00000           0.657587           17.89386

  Spin-down eigenvalues:

  State    Occupation    Eigenvalue [Ha]    Eigenvalue [eV]
      1       0.00000           0.099340            2.70317
      2       0.00000           0.116219            3.16247
      3       0.00000           0.504448           13.72673
      4       0.00000           0.539763           14.68769
      5       0.00000           1.140007           31.02116
      6       0.00000           1.140007           31.02116
      7       0.00000           1.253814           34.11801
      8       0.00000           1.518283           41.31458
      9       0.00000           1.518283           41.31458
     10       0.00000           1.555819           42.33599
     11       0.00000           1.644277           44.74306

  Current spin moment of the entire structure :
  | N = N_up - N_down :    2.00
  | S                 :    1.00
  | J                 :    3.00

  Highest occupied state (VBM) at     -2.00396541 eV
  | Occupation number:      1.00000000
  | Spin channel:        1

  Lowest unoccupied state (CBM) at     0.33409192 eV
  | Occupation number:      0.00000000
  | Spin channel:        1

  Overall HOMO-LUMO gap:      2.33805733 eV.
  Calculating total energy contributions from superposition of free atom densities.

  Total energy components:
  | Sum of eigenvalues            :          -0.62386602 Ha         -16.97625808 eV
  | XC energy correction          :          -0.67702537 Ha         -18.42279761 eV
  | XC potential correction       :           0.87312193 Ha          23.75885643 eV
  | Free-atom electrostatic energy:          -0.39994894 Ha         -10.88316443 eV
  | Hartree energy correction     :           0.00000000 Ha           0.00000000 eV
  | van der Waals energy corr.    :           0.00000000 Ha           0.00000000 eV
  | Entropy correction            :           0.00000000 Ha           0.00000000 eV
  | ---------------------------
  | Total energy                  :          -0.82771840 Ha         -22.52336370 eV
  | Total energy, T -> 0          :          -0.82771840 Ha         -22.52336370 eV  <-- do not rely on this value for anything but (periodic) metals
  | Electronic free energy        :          -0.82771840 Ha         -22.52336370 eV

  Derived energy quantities:
  | Kinetic energy                :           1.16351624 Ha          31.66088772 eV
  | Electrostatic energy          :          -1.31420927 Ha         -35.76145381 eV
  | Energy correction for multipole
  | error in Hartree potential    :           0.00000000 Ha           0.00000000 eV
  | Sum of eigenvalues per atom                           :          -8.48812904 eV
  | Total energy (T->0) per atom                          :         -11.26168185 eV  <-- do not rely on this value for anything but (periodic) metals
  | Electronic free energy per atom                       :         -11.26168185 eV
  Initialize hartree_potential_storage
  Max. number of atoms included in rho_multipole:            2

  End scf initialization - timings             :  max(cpu_time)    wall_clock(cpu1)
  | Time for scf. initialization               :        0.042 s           0.042 s
  | Boundary condition initialization          :        0.000 s           0.000 s
  | Integration                                :        0.015 s           0.015 s
  | Solution of K.-S. eqns.                    :        0.007 s           0.008 s
  | Grid partitioning                          :        0.007 s           0.007 s
  | Preloading free-atom quantities on grid    :        0.004 s           0.004 s
  | Free-atom superposition energy             :        0.003 s           0.003 s
  | Total energy evaluation                    :        0.000 s           0.001 s
------------------------------------------------------------

------------------------------------------------------------
          Begin self-consistency iteration #    1

  Date     :  20220120, Time     :  151810.961
------------------------------------------------------------
  Evaluating new KS density.
  Integration grid: deviation in total charge (<rho> - N_e) =   3.346504E-07
  | <rho_up-rho_dn> = N_up-N_dn =      2.0000; <|rho_up-rho_dn|> =      2.0717
  Pulay mixing of updated and previous charge densities.

  Evaluating partitioned Hartree potential by multipole expansion.
  | Analytical far-field extrapolation by fixed multipoles:
  | Hartree multipole sum: apparent total charge =  -0.640379E-05
  Summing up the Hartree potential.
  Time summed over all CPUs for potential: real work        0.036 s, elapsed        0.038 s
  | RMS charge density error from multipole expansion :   0.683504E-03

  Integrating Hamiltonian matrix: batch-based integration.
  Time summed over all CPUs for integration: real work        0.068 s, elapsed        0.072 s

  Updating Kohn-Sham eigenvalues, eigenvectors, occupation numbers, and Fermi level.
  Solving generalized eigenproblem
  Solving real symmetric generalised eigenvalue problem by standard ScaLAPACK.
  Using Cholesky factor for transformation
  Using 1-stage real ELPA solver
  Solving real symmetric generalised eigenvalue problem by standard ScaLAPACK.
  Using Cholesky factor for transformation
  Using 1-stage real ELPA solver
  Determining occupation numbers for Kohn-Sham eigenstates.
  | Chemical potential (Fermi level) in eV                 : -.42464814E+01
  | Error in electron count due to remaining E_F inaccuracy: 0.00000000E+00
  | Maximum occupation number of highest empty state:  0.00E+00

  Writing Kohn-Sham eigenvalues.

  Spin-up eigenvalues:

  State    Occupation    Eigenvalue [Ha]    Eigenvalue [eV]
      1       1.00000          -0.424676          -11.55603
      2       0.00000           0.068958            1.87644
      3       0.00000           0.072484            1.97238
      4       0.00000           0.189469            5.15571
      5       0.00000           0.265027            7.21175
      6       0.00000           0.265027            7.21175
      7       0.00000           0.376192           10.23670
      8       0.00000           0.573258           15.59915
      9       0.00000           0.768112           20.90139
     10       0.00000           0.768112           20.90139
     11       0.00000           0.830441           22.59745

  Spin-down eigenvalues:

  State    Occupation    Eigenvalue [Ha]    Eigenvalue [eV]
      1       1.00000          -0.220780           -6.00772
      2       0.00000           0.091690            2.49501
      3       0.00000           0.091778            2.49740
      4       0.00000           0.252798            6.87898
      5       0.00000           0.373525           10.16413
      6       0.00000           0.373525           10.16413
      7       0.00000           0.449543           12.23270
      8       0.00000           0.687689           18.71297
      9       0.00000           0.857410           23.33131
     10       0.00000           0.857410           23.33131
     11       0.00000           0.871025           23.70180

  Current spin moment of the entire structure :
  | N = N_up - N_down :    0.00
  | S                 :    0.00
  | J                 :    1.00

  Highest occupied state (VBM) at     -6.00772056 eV
  | Occupation number:      1.00000000
  | Spin channel:        2

  Lowest unoccupied state (CBM) at     1.87644068 eV
  | Occupation number:      0.00000000
  | Spin channel:        1

  Overall HOMO-LUMO gap:      7.88416124 eV.

  Total energy components:
  | Sum of eigenvalues            :          -0.64545600 Ha         -17.56375152 eV
  | XC energy correction          :          -0.43357523 Ha         -11.79818230 eV
  | XC potential correction       :           0.55894498 Ha          15.20966687 eV
  | Free-atom electrostatic energy:          -0.39994894 Ha         -10.88316443 eV
  | Hartree energy correction     :          -0.00270961 Ha          -0.07373237 eV
  | van der Waals energy corr.    :           0.00000000 Ha           0.00000000 eV
  | Entropy correction            :           0.00000000 Ha           0.00000000 eV
  | ---------------------------
  | Total energy                  :          -0.92274481 Ha         -25.10916375 eV
  | Total energy, T -> 0          :          -0.92274481 Ha         -25.10916375 eV  <-- do not rely on this value for anything but (periodic) metals
  | Electronic free energy        :          -0.92274481 Ha         -25.10916375 eV

  Derived energy quantities:
  | Kinetic energy                :           0.88098229 Ha          23.97274785 eV
  | Electrostatic energy          :          -1.37015187 Ha         -37.28372930 eV
  | Energy correction for multipole
  | error in Hartree potential    :          -0.00016518 Ha          -0.00449476 eV
  | Sum of eigenvalues per atom                           :          -8.78187576 eV
  | Total energy (T->0) per atom                          :         -12.55458187 eV  <-- do not rely on this value for anything but (periodic) metals
  | Electronic free energy per atom                       :         -12.55458187 eV

  Self-consistency convergence accuracy:
  | Change of charge/spin density : 0.4556E-01 0.4556E-01
  | Change of sum of eigenvalues  : -.5875E+00 eV
  | Change of total energy        : -.2586E+01 eV

  End self-consistency iteration #     1       :  max(cpu_time)    wall_clock(cpu1)
  | Time for this iteration                    :        0.028 s           0.028 s
  | Charge density update                      :        0.007 s           0.007 s
  | Density mixing                             :        0.001 s           0.001 s
  | Hartree multipole update                   :        0.001 s           0.001 s
  | Hartree multipole summation                :        0.006 s           0.006 s
  | Integration                                :        0.009 s           0.009 s
  | Solution of K.-S. eqns.                    :        0.002 s           0.002 s
  | Total energy evaluation                    :        0.000 s           0.001 s
------------------------------------------------------------

------------------------------------------------------------
          Begin self-consistency iteration #    2

  Date     :  20220120, Time     :  151810.991
------------------------------------------------------------
  Evaluating new KS density.
  Integration grid: deviation in total charge (<rho> - N_e) =   2.007902E-07
  | <rho_up-rho_dn> = N_up-N_dn =     -2.0000; <|rho_up-rho_dn|> =      2.0000
  Pulay mixing of updated and previous charge densities.

  Evaluating partitioned Hartree potential by multipole expansion.
  | Analytical far-field extrapolation by fixed multipoles:
  | Hartree multipole sum: apparent total charge =  -0.631435E-05
  Summing up the Hartree potential.
  Time summed over all CPUs for potential: real work        0.034 s, elapsed        0.041 s
  | RMS charge density error from multipole expansion :   0.663544E-03

  Integrating Hamiltonian matrix: batch-based integration.
  Time summed over all CPUs for integration: real work        0.070 s, elapsed        0.080 s

  Updating Kohn-Sham eigenvalues, eigenvectors, occupation numbers, and Fermi level.
  Solving generalized eigenproblem
  Solving real symmetric generalised eigenvalue problem by standard ScaLAPACK.
  Using Cholesky factor for transformation
  Using 1-stage real ELPA solver
  Solving real symmetric generalised eigenvalue problem by standard ScaLAPACK.
  Using Cholesky factor for transformation
  Using 1-stage real ELPA solver
  Determining occupation numbers for Kohn-Sham eigenstates.
  | Chemical potential (Fermi level) in eV                 : -.62457983E+01
  | Error in electron count due to remaining E_F inaccuracy: 0.00000000E+00
  | Maximum occupation number of highest empty state:  0.00E+00

  Current spin moment of the entire structure :
  | N = N_up - N_down :    0.00
  | S                 :    0.00
  | J                 :    1.00

  Highest occupied state (VBM) at     -7.39584841 eV
  | Occupation number:      1.00000000
  | Spin channel:        2

  Lowest unoccupied state (CBM) at     0.88450574 eV
  | Occupation number:      0.00000000
  | Spin channel:        1

  Overall HOMO-LUMO gap:      8.28035415 eV.

  Total energy components:
  | Sum of eigenvalues            :          -0.78488240 Ha         -21.35773684 eV
  | XC energy correction          :          -0.55826049 Ha         -15.19104090 eV
  | XC potential correction       :           0.72125951 Ha          19.62646990 eV
  | Free-atom electrostatic energy:          -0.39994894 Ha         -10.88316443 eV
  | Hartree energy correction     :          -0.00521161 Ha          -0.14181519 eV
  | van der Waals energy corr.    :           0.00000000 Ha           0.00000000 eV
  | Entropy correction            :           0.00000000 Ha           0.00000000 eV
  | ---------------------------
  | Total energy                  :          -1.02704394 Ha         -27.94728746 eV
  | Total energy, T -> 0          :          -1.02704394 Ha         -27.94728746 eV  <-- do not rely on this value for anything but (periodic) metals
  | Electronic free energy        :          -1.02704394 Ha         -27.94728746 eV

  Derived energy quantities:
  | Kinetic energy                :           0.90340807 Ha          24.58298436 eV
  | Electrostatic energy          :          -1.37219151 Ha         -37.33923091 eV
  | Energy correction for multipole
  | error in Hartree potential    :          -0.00016177 Ha          -0.00440194 eV
  | Sum of eigenvalues per atom                           :         -10.67886842 eV
  | Total energy (T->0) per atom                          :         -13.97364373 eV  <-- do not rely on this value for anything but (periodic) metals
  | Electronic free energy per atom                       :         -13.97364373 eV

  Self-consistency convergence accuracy:
  | Change of charge/spin density : 0.1150E+00 0.2779E+00
  | Change of sum of eigenvalues  : -.3794E+01 eV
  | Change of total energy        : -.2838E+01 eV

  End self-consistency iteration #     2       :  max(cpu_time)    wall_clock(cpu1)
  | Time for this iteration                    :        0.029 s           0.028 s
  | Charge density update                      :        0.007 s           0.007 s
  | Density mixing                             :        0.001 s           0.001 s
  | Hartree multipole update                   :        0.001 s           0.001 s
  | Hartree multipole summation                :        0.005 s           0.006 s
  | Integration                                :        0.010 s           0.010 s
  | Solution of K.-S. eqns.                    :        0.002 s           0.002 s
  | Total energy evaluation                    :        0.000 s           0.000 s
------------------------------------------------------------

------------------------------------------------------------
          Begin self-consistency iteration #    3

  Date     :  20220120, Time     :  151811.021
------------------------------------------------------------
  Evaluating new KS density.
  Integration grid: deviation in total charge (<rho> - N_e) =   1.978301E-07
  | <rho_up-rho_dn> = N_up-N_dn =     -1.9558; <|rho_up-rho_dn|> =      1.9558
  Pulay mixing of updated and previous charge densities.

  Evaluating partitioned Hartree potential by multipole expansion.
  | Analytical far-field extrapolation by fixed multipoles:
  | Hartree multipole sum: apparent total charge =  -0.635534E-05
  Summing up the Hartree potential.
  Time summed over all CPUs for potential: real work        0.041 s, elapsed        0.049 s
  | RMS charge density error from multipole expansion :   0.646131E-03

  Integrating Hamiltonian matrix: batch-based integration.
  Time summed over all CPUs for integration: real work        0.070 s, elapsed        0.072 s

  Updating Kohn-Sham eigenvalues, eigenvectors, occupation numbers, and Fermi level.
  Solving generalized eigenproblem
  Solving real symmetric generalised eigenvalue problem by standard ScaLAPACK.
  Using Cholesky factor for transformation
  Using 1-stage real ELPA solver
  Solving real symmetric generalised eigenvalue problem by standard ScaLAPACK.
  Using Cholesky factor for transformation
  Using 1-stage real ELPA solver
  Determining occupation numbers for Kohn-Sham eigenstates.
  | Chemical potential (Fermi level) in eV                 : -.62329862E+01
  | Error in electron count due to remaining E_F inaccuracy: 0.00000000E+00
  | Maximum occupation number of highest empty state:  0.00E+00

  Current spin moment of the entire structure :
  | N = N_up - N_down :    0.00
  | S                 :    0.00
  | J                 :    1.00

  Highest occupied state (VBM) at     -7.11851612 eV
  | Occupation number:      1.00000000
  | Spin channel:        2

  Lowest unoccupied state (CBM) at     0.94737995 eV
  | Occupation number:      0.00000000
  | Spin channel:        1

  Overall HOMO-LUMO gap:      8.06589607 eV.

  Total energy components:
  | Sum of eigenvalues            :          -0.77435197 Ha         -21.07118925 eV
  | XC energy correction          :          -0.55199919 Ha         -15.02066214 eV
  | XC potential correction       :           0.71318641 Ha          19.40678958 eV
  | Free-atom electrostatic energy:          -0.39994894 Ha         -10.88316443 eV
  | Hartree energy correction     :          -0.00182338 Ha          -0.04961671 eV
  | van der Waals energy corr.    :           0.00000000 Ha           0.00000000 eV
  | Entropy correction            :           0.00000000 Ha           0.00000000 eV
  | ---------------------------
  | Total energy                  :          -1.01493707 Ha         -27.61784295 eV
  | Total energy, T -> 0          :          -1.01493707 Ha         -27.61784295 eV  <-- do not rely on this value for anything but (periodic) metals
  | Electronic free energy        :          -1.01493707 Ha         -27.61784295 eV

  Derived energy quantities:
  | Kinetic energy                :           0.90239486 Ha          24.55541346 eV
  | Electrostatic energy          :          -1.36533274 Ha         -37.15259426 eV
  | Energy correction for multipole
  | error in Hartree potential    :          -0.00015618 Ha          -0.00425000 eV
  | Sum of eigenvalues per atom                           :         -10.53559462 eV
  | Total energy (T->0) per atom                          :         -13.80892147 eV  <-- do not rely on this value for anything but (periodic) metals
  | Electronic free energy per atom                       :         -13.80892147 eV

  Self-consistency convergence accuracy:
  | Change of charge/spin density : 0.1345E+00 0.2661E+00
  | Change of sum of eigenvalues  : 0.2865E+00 eV
  | Change of total energy        : 0.3294E+00 eV

  End self-consistency iteration #     3       :  max(cpu_time)    wall_clock(cpu1)
  | Time for this iteration                    :        0.030 s           0.029 s
  | Charge density update                      :        0.008 s           0.007 s
  | Density mixing                             :        0.002 s           0.002 s
  | Hartree multipole update                   :        0.002 s           0.002 s
  | Hartree multipole summation                :        0.007 s           0.006 s
  | Integration                                :        0.009 s           0.010 s
  | Solution of K.-S. eqns.                    :        0.002 s           0.001 s
  | Total energy evaluation                    :        0.000 s           0.000 s
------------------------------------------------------------

------------------------------------------------------------
          Begin self-consistency iteration #    4

  Date     :  20220120, Time     :  151811.052
------------------------------------------------------------
  Evaluating new KS density.
  Integration grid: deviation in total charge (<rho> - N_e) =   1.982939E-07
  | <rho_up-rho_dn> = N_up-N_dn =     -1.9616; <|rho_up-rho_dn|> =      1.9616
  Pulay mixing of updated and previous charge densities.

  Evaluating partitioned Hartree potential by multipole expansion.
  | Analytical far-field extrapolation by fixed multipoles:
  | Hartree multipole sum: apparent total charge =  -0.635275E-05
  Summing up the Hartree potential.
  Time summed over all CPUs for potential: real work        0.034 s, elapsed        0.036 s
  | RMS charge density error from multipole expansion :   0.592775E-03

  Integrating Hamiltonian matrix: batch-based integration.
  Time summed over all CPUs for integration: real work        0.070 s, elapsed        0.076 s

  Updating Kohn-Sham eigenvalues, eigenvectors, occupation numbers, and Fermi level.
  Solving generalized eigenproblem
  Solving real symmetric generalised eigenvalue problem by standard ScaLAPACK.
  Using Cholesky factor for transformation
  Using 1-stage real ELPA solver
  Solving real symmetric generalised eigenvalue problem by standard ScaLAPACK.
  Using Cholesky factor for transformation
  Using 1-stage real ELPA solver
  Determining occupation numbers for Kohn-Sham eigenstates.
  | Chemical potential (Fermi level) in eV                 : -.37615391E+01
  | Error in electron count due to remaining E_F inaccuracy: 0.00000000E+00
  | Maximum occupation number of highest empty state:  0.00E+00

  Current spin moment of the entire structure :
  | N = N_up - N_down :    0.00
  | S                 :    0.00
  | J                 :    1.00

  Highest occupied state (VBM) at     -6.19658543 eV
  | Occupation number:      1.00000000
  | Spin channel:        2

  Lowest unoccupied state (CBM) at     1.33939394 eV
  | Occupation number:      0.00000000
  | Spin channel:        1

  Overall HOMO-LUMO gap:      7.53597937 eV.

  Total energy components:
  | Sum of eigenvalues            :          -0.62364243 Ha         -16.97017387 eV
  | XC energy correction          :          -0.42834573 Ha         -11.65588039 eV
  | XC potential correction       :           0.55030426 Ha          14.97454087 eV
  | Free-atom electrostatic energy:          -0.39994894 Ha         -10.88316443 eV
  | Hartree energy correction     :           0.00375241 Ha           0.10210830 eV
  | van der Waals energy corr.    :           0.00000000 Ha           0.00000000 eV
  | Entropy correction            :           0.00000000 Ha           0.00000000 eV
  | ---------------------------
  | Total energy                  :          -0.89788043 Ha         -24.43256952 eV
  | Total energy, T -> 0          :          -0.89788043 Ha         -24.43256952 eV  <-- do not rely on this value for anything but (periodic) metals
  | Electronic free energy        :          -0.89788043 Ha         -24.43256952 eV

  Derived energy quantities:
  | Kinetic energy                :           0.88386146 Ha          24.05109405 eV
  | Electrostatic energy          :          -1.35339616 Ha         -36.82778318 eV
  | Energy correction for multipole
  | error in Hartree potential    :          -0.00014102 Ha          -0.00383742 eV
  | Sum of eigenvalues per atom                           :          -8.48508694 eV
  | Total energy (T->0) per atom                          :         -12.21628476 eV  <-- do not rely on this value for anything but (periodic) metals
  | Electronic free energy per atom                       :         -12.21628476 eV

  Self-consistency convergence accuracy:
  | Change of charge/spin density : 0.1325E+00 0.2625E+00
  | Change of sum of eigenvalues  : 0.4101E+01 eV
  | Change of total energy        : 0.3185E+01 eV

  End self-consistency iteration #     4       :  max(cpu_time)    wall_clock(cpu1)
  | Time for this iteration                    :        0.027 s           0.026 s
  | Charge density update                      :        0.006 s           0.006 s
  | Density mixing                             :        0.001 s           0.001 s
  | Hartree multipole update                   :        0.001 s           0.002 s
  | Hartree multipole summation                :        0.005 s           0.005 s
  | Integration                                :        0.010 s           0.009 s
  | Solution of K.-S. eqns.                    :        0.002 s           0.002 s
  | Total energy evaluation                    :        0.000 s           0.000 s
------------------------------------------------------------

------------------------------------------------------------
          Begin self-consistency iteration #    5

  Date     :  20220120, Time     :  151811.080
------------------------------------------------------------
  Evaluating new KS density.
  Integration grid: deviation in total charge (<rho> - N_e) =   1.968994E-07
  | <rho_up-rho_dn> = N_up-N_dn =     -1.9384; <|rho_up-rho_dn|> =      1.9384
  Pulay mixing of updated and previous charge densities.

  Evaluating partitioned Hartree potential by multipole expansion.
  | Analytical far-field extrapolation by fixed multipoles:
  | Hartree multipole sum: apparent total charge =  -0.647907E-05
  Summing up the Hartree potential.
  Time summed over all CPUs for potential: real work        0.034 s, elapsed        0.037 s
  | RMS charge density error from multipole expansion :   0.702976E-03

  Integrating Hamiltonian matrix: batch-based integration.
  Time summed over all CPUs for integration: real work        0.068 s, elapsed        0.075 s

  Updating Kohn-Sham eigenvalues, eigenvectors, occupation numbers, and Fermi level.
  Solving generalized eigenproblem
  Solving real symmetric generalised eigenvalue problem by standard ScaLAPACK.
  Using Cholesky factor for transformation
  Using 1-stage real ELPA solver
  Solving real symmetric generalised eigenvalue problem by standard ScaLAPACK.
  Using Cholesky factor for transformation
  Using 1-stage real ELPA solver
  Determining occupation numbers for Kohn-Sham eigenstates.
  | Chemical potential (Fermi level) in eV                 : -.41903564E+01
  | Error in electron count due to remaining E_F inaccuracy: 0.00000000E+00
  | Maximum occupation number of highest empty state:  0.00E+00

  Current spin moment of the entire structure :
  | N = N_up - N_down :    0.00
  | S                 :    0.00
  | J                 :    1.00

  Highest occupied state (VBM) at     -5.99749818 eV
  | Occupation number:      1.00000000
  | Spin channel:        2

  Lowest unoccupied state (CBM) at     1.87008884 eV
  | Occupation number:      0.00000000
  | Spin channel:        1

  Overall HOMO-LUMO gap:      7.86758702 eV.

  Total energy components:
  | Sum of eigenvalues            :          -0.65551157 Ha         -17.83737725 eV
  | XC energy correction          :          -0.42385881 Ha         -11.53378496 eV
  | XC potential correction       :           0.54837114 Ha          14.92193797 eV
  | Free-atom electrostatic energy:          -0.39994894 Ha         -10.88316443 eV
  | Hartree energy correction     :          -0.01004375 Ha          -0.27330427 eV
  | van der Waals energy corr.    :           0.00000000 Ha           0.00000000 eV
  | Entropy correction            :           0.00000000 Ha           0.00000000 eV
  | ---------------------------
  | Total energy                  :          -0.94099192 Ha         -25.60569294 eV
  | Total energy, T -> 0          :          -0.94099192 Ha         -25.60569294 eV  <-- do not rely on this value for anything but (periodic) metals
  | Electronic free energy        :          -0.94099192 Ha         -25.60569294 eV

  Derived energy quantities:
  | Kinetic energy                :           0.86438587 Ha          23.52113620 eV
  | Electrostatic energy          :          -1.38151898 Ha         -37.59304419 eV
  | Energy correction for multipole
  | error in Hartree potential    :          -0.00017685 Ha          -0.00481232 eV
  | Sum of eigenvalues per atom                           :          -8.91868862 eV
  | Total energy (T->0) per atom                          :         -12.80284647 eV  <-- do not rely on this value for anything but (periodic) metals
  | Electronic free energy per atom                       :         -12.80284647 eV

  Self-consistency convergence accuracy:
  | Change of charge/spin density : 0.8208E-01 0.2828E+00
  | Change of sum of eigenvalues  : -.8672E+00 eV
  | Change of total energy        : -.1173E+01 eV

  End self-consistency iteration #     5       :  max(cpu_time)    wall_clock(cpu1)
  | Time for this iteration                    :        0.027 s           0.026 s
  | Charge density update                      :        0.007 s           0.006 s
  | Density mixing                             :        0.002 s           0.001 s
  | Hartree multipole update                   :        0.001 s           0.002 s
  | Hartree multipole summation                :        0.005 s           0.005 s
  | Integration                                :        0.010 s           0.010 s
  | Solution of K.-S. eqns.                    :        0.001 s           0.001 s
  | Total energy evaluation                    :        0.000 s           0.000 s
------------------------------------------------------------

------------------------------------------------------------
          Begin self-consistency iteration #    6

  Date     :  20220120, Time     :  151811.109
------------------------------------------------------------
  Evaluating new KS density.
  Integration grid: deviation in total charge (<rho> - N_e) =   2.038952E-07
  | <rho_up-rho_dn> = N_up-N_dn =     -2.0372; <|rho_up-rho_dn|> =      2.0372
  Pulay mixing of updated and previous charge densities.

  Evaluating partitioned Hartree potential by multipole expansion.
  | Analytical far-field extrapolation by fixed multipoles:
  | Hartree multipole sum: apparent total charge =  -0.626332E-05
  Summing up the Hartree potential.
  Time summed over all CPUs for potential: real work        0.035 s, elapsed        0.036 s
  | RMS charge density error from multipole expansion :   0.939532E-03

  Integrating Hamiltonian matrix: batch-based integration.
  Time summed over all CPUs for integration: real work        0.068 s, elapsed        0.070 s

  Updating Kohn-Sham eigenvalues, eigenvectors, occupation numbers, and Fermi level.
  Solving generalized eigenproblem
  Solving real symmetric generalised eigenvalue problem by standard ScaLAPACK.
  Using Cholesky factor for transformation
  Using 1-stage real ELPA solver
  Solving real symmetric generalised eigenvalue problem by standard ScaLAPACK.
  Using Cholesky factor for transformation
  Using 1-stage real ELPA solver
  Determining occupation numbers for Kohn-Sham eigenstates.
  | Chemical potential (Fermi level) in eV                 : -.54087228E+01
  | Error in electron count due to remaining E_F inaccuracy: 0.00000000E+00
  | Maximum occupation number of highest empty state:  0.00E+00

  Current spin moment of the entire structure :
  | N = N_up - N_down :    0.00
  | S                 :    0.00
  | J                 :    1.00

  Highest occupied state (VBM) at     -7.76907344 eV
  | Occupation number:      1.00000000
  | Spin channel:        2

  Lowest unoccupied state (CBM) at     1.11241056 eV
  | Occupation number:      0.00000000
  | Spin channel:        1

  Overall HOMO-LUMO gap:      8.88148399 eV.

  Total energy components:
  | Sum of eigenvalues            :          -0.76107302 Ha         -20.70985066 eV
  | XC energy correction          :          -0.56074206 Ha         -15.25856784 eV
  | XC potential correction       :           0.72444936 Ha          19.71327003 eV
  | Free-atom electrostatic energy:          -0.39994894 Ha         -10.88316443 eV
  | Hartree energy correction     :          -0.03706159 Ha          -1.00849727 eV
  | van der Waals energy corr.    :           0.00000000 Ha           0.00000000 eV
  | Entropy correction            :           0.00000000 Ha           0.00000000 eV
  | ---------------------------
  | Total energy                  :          -1.03437626 Ha         -28.14681017 eV
  | Total energy, T -> 0          :          -1.03437626 Ha         -28.14681017 eV  <-- do not rely on this value for anything but (periodic) metals
  | Electronic free energy        :          -1.03437626 Ha         -28.14681017 eV

  Derived energy quantities:
  | Kinetic energy                :           0.94270675 Ha          25.65235574 eV
  | Electrostatic energy          :          -1.41634095 Ha         -38.54059807 eV
  | Energy correction for multipole
  | error in Hartree potential    :          -0.00021142 Ha          -0.00575309 eV
  | Sum of eigenvalues per atom                           :         -10.35492533 eV
  | Total energy (T->0) per atom                          :         -14.07340509 eV  <-- do not rely on this value for anything but (periodic) metals
  | Electronic free energy per atom                       :         -14.07340509 eV

  Self-consistency convergence accuracy:
  | Change of charge/spin density : 0.1437E+00 0.2777E+00
  | Change of sum of eigenvalues  : -.2872E+01 eV
  | Change of total energy        : -.2541E+01 eV

  End self-consistency iteration #     6       :  max(cpu_time)    wall_clock(cpu1)
  | Time for this iteration                    :        0.027 s           0.026 s
  | Charge density update                      :        0.007 s           0.006 s
  | Density mixing                             :        0.002 s           0.002 s
  | Hartree multipole update                   :        0.001 s           0.001 s
  | Hartree multipole summation                :        0.005 s           0.005 s
  | Integration                                :        0.009 s           0.009 s
  | Solution of K.-S. eqns.                    :        0.001 s           0.002 s
  | Total energy evaluation                    :        0.000 s           0.001 s
------------------------------------------------------------

------------------------------------------------------------
          Begin self-consistency iteration #    7

  Date     :  20220120, Time     :  151811.138
------------------------------------------------------------
  Evaluating new KS density.
  Integration grid: deviation in total charge (<rho> - N_e) =   1.954182E-07
  | <rho_up-rho_dn> = N_up-N_dn =     -1.9638; <|rho_up-rho_dn|> =      1.9638
  Pulay mixing of updated and previous charge densities.

  Evaluating partitioned Hartree potential by multipole expansion.
  | Analytical far-field extrapolation by fixed multipoles:
  | Hartree multipole sum: apparent total charge =  -0.625367E-05
  Summing up the Hartree potential.
  Time summed over all CPUs for potential: real work        0.034 s, elapsed        0.035 s
  | RMS charge density error from multipole expansion :   0.959960E-03

  Integrating Hamiltonian matrix: batch-based integration.
  Time summed over all CPUs for integration: real work        0.066 s, elapsed        0.069 s

  Updating Kohn-Sham eigenvalues, eigenvectors, occupation numbers, and Fermi level.
  Solving generalized eigenproblem
  Solving real symmetric generalised eigenvalue problem by standard ScaLAPACK.
  Using Cholesky factor for transformation
  Using 1-stage real ELPA solver
  Solving real symmetric generalised eigenvalue problem by standard ScaLAPACK.
  Using Cholesky factor for transformation
  Using 1-stage real ELPA solver
  Determining occupation numbers for Kohn-Sham eigenstates.
  | Chemical potential (Fermi level) in eV                 : -.52711854E+01
  | Error in electron count due to remaining E_F inaccuracy: 0.00000000E+00
  | Maximum occupation number of highest empty state:  0.00E+00

  Current spin moment of the entire structure :
  | N = N_up - N_down :    0.00
  | S                 :    0.00
  | J                 :    1.00

  Highest occupied state (VBM) at     -7.72991933 eV
  | Occupation number:      1.00000000
  | Spin channel:        2

  Lowest unoccupied state (CBM) at     1.08079112 eV
  | Occupation number:      0.00000000
  | Spin channel:        1

  Overall HOMO-LUMO gap:      8.81071045 eV.

  Total energy components:
  | Sum of eigenvalues            :          -0.75286197 Ha         -20.48641645 eV
  | XC energy correction          :          -0.55907111 Ha         -15.21309896 eV
  | XC potential correction       :           0.72210982 Ha          19.64960785 eV
  | Free-atom electrostatic energy:          -0.39994894 Ha         -10.88316443 eV
  | Hartree energy correction     :          -0.03849591 Ha          -1.04752691 eV
  | van der Waals energy corr.    :           0.00000000 Ha           0.00000000 eV
  | Entropy correction            :           0.00000000 Ha           0.00000000 eV
  | ---------------------------
  | Total energy                  :          -1.02826811 Ha         -27.98059890 eV
  | Total energy, T -> 0          :          -1.02826811 Ha         -27.98059890 eV  <-- do not rely on this value for anything but (periodic) metals
  | Electronic free energy        :          -1.02826811 Ha         -27.98059890 eV

  Derived energy quantities:
  | Kinetic energy                :           0.94902068 Ha          25.82416651 eV
  | Electrostatic energy          :          -1.41821767 Ha         -38.59166645 eV
  | Energy correction for multipole
  | error in Hartree potential    :          -0.00021411 Ha          -0.00582620 eV
  | Sum of eigenvalues per atom                           :         -10.24320822 eV
  | Total energy (T->0) per atom                          :         -13.99029945 eV  <-- do not rely on this value for anything but (periodic) metals
  | Electronic free energy per atom                       :         -13.99029945 eV

  Self-consistency convergence accuracy:
  | Change of charge/spin density : 0.1365E+00 0.2755E+00
  | Change of sum of eigenvalues  : 0.2234E+00 eV
  | Change of total energy        : 0.1662E+00 eV

  End self-consistency iteration #     7       :  max(cpu_time)    wall_clock(cpu1)
  | Time for this iteration                    :        0.027 s           0.026 s
  | Charge density update                      :        0.007 s           0.006 s
  | Density mixing                             :        0.002 s           0.002 s
  | Hartree multipole update                   :        0.001 s           0.001 s
  | Hartree multipole summation                :        0.005 s           0.005 s
  | Integration                                :        0.009 s           0.009 s
  | Solution of K.-S. eqns.                    :        0.001 s           0.002 s
  | Total energy evaluation                    :        0.000 s           0.001 s
------------------------------------------------------------

------------------------------------------------------------
          Begin self-consistency iteration #    8

  Date     :  20220120, Time     :  151811.168
------------------------------------------------------------
  Evaluating new KS density.
  Integration grid: deviation in total charge (<rho> - N_e) =   1.950358E-07
  | <rho_up-rho_dn> = N_up-N_dn =     -1.9606; <|rho_up-rho_dn|> =      1.9606
  Pulay mixing of updated and previous charge densities.

  Evaluating partitioned Hartree potential by multipole expansion.
  | Analytical far-field extrapolation by fixed multipoles:
  | Hartree multipole sum: apparent total charge =  -0.570531E-05
  Summing up the Hartree potential.
  Time summed over all CPUs for potential: real work        0.033 s, elapsed        0.034 s
  | RMS charge density error from multipole expansion :   0.197437E-02

  Integrating Hamiltonian matrix: batch-based integration.
  Time summed over all CPUs for integration: real work        0.065 s, elapsed        0.067 s

  Updating Kohn-Sham eigenvalues, eigenvectors, occupation numbers, and Fermi level.
  Solving generalized eigenproblem
  Solving real symmetric generalised eigenvalue problem by standard ScaLAPACK.
  Using Cholesky factor for transformation
  Using 1-stage real ELPA solver
  Solving real symmetric generalised eigenvalue problem by standard ScaLAPACK.
  Using Cholesky factor for transformation
  Using 1-stage real ELPA solver
  Determining occupation numbers for Kohn-Sham eigenstates.
  | Chemical potential (Fermi level) in eV                 : -.43902735E+01
  | Error in electron count due to remaining E_F inaccuracy: 0.00000000E+00
  | Maximum occupation number of highest empty state:  0.00E+00

  Current spin moment of the entire structure :
  | N = N_up - N_down :    0.00
  | S                 :    0.00
  | J                 :    1.00

  Highest occupied state (VBM) at     -7.79668152 eV
  | Occupation number:      1.00000000
  | Spin channel:        2

  Lowest unoccupied state (CBM) at     1.23908729 eV
  | Occupation number:      0.00000000
  | Spin channel:        1

  Overall HOMO-LUMO gap:      9.03576881 eV.

  Total energy components:
  | Sum of eigenvalues            :          -0.71248649 Ha         -19.38774377 eV
  | XC energy correction          :          -0.62615542 Ha         -17.03855586 eV
  | XC potential correction       :           0.80699098 Ha          21.95934184 eV
  | Free-atom electrostatic energy:          -0.39994894 Ha         -10.88316443 eV
  | Hartree energy correction     :          -0.11225473 Ha          -3.05460656 eV
  | van der Waals energy corr.    :           0.00000000 Ha           0.00000000 eV
  | Entropy correction            :           0.00000000 Ha           0.00000000 eV
  | ---------------------------
  | Total energy                  :          -1.04385460 Ha         -28.40472879 eV
  | Total energy, T -> 0          :          -1.04385460 Ha         -28.40472879 eV  <-- do not rely on this value for anything but (periodic) metals
  | Electronic free energy        :          -1.04385460 Ha         -28.40472879 eV

  Derived energy quantities:
  | Kinetic energy                :           1.11386164 Ha          30.30971739 eV
  | Electrostatic energy          :          -1.53156082 Ha         -41.67589031 eV
  | Energy correction for multipole
  | error in Hartree potential    :          -0.00036873 Ha          -0.01003353 eV
  | Sum of eigenvalues per atom                           :          -9.69387189 eV
  | Total energy (T->0) per atom                          :         -14.20236439 eV  <-- do not rely on this value for anything but (periodic) metals
  | Electronic free energy per atom                       :         -14.20236439 eV

  Self-consistency convergence accuracy:
  | Change of charge/spin density : 0.1330E+00 0.2756E+00
  | Change of sum of eigenvalues  : 0.1099E+01 eV
  | Change of total energy        : -.4241E+00 eV

  End self-consistency iteration #     8       :  max(cpu_time)    wall_clock(cpu1)
  | Time for this iteration                    :        0.025 s           0.025 s
  | Charge density update                      :        0.007 s           0.006 s
  | Density mixing                             :        0.002 s           0.002 s
  | Hartree multipole update                   :        0.001 s           0.001 s
  | Hartree multipole summation                :        0.004 s           0.005 s
  | Integration                                :        0.008 s           0.008 s
  | Solution of K.-S. eqns.                    :        0.001 s           0.002 s
  | Total energy evaluation                    :        0.000 s           0.001 s
------------------------------------------------------------

------------------------------------------------------------
          Begin self-consistency iteration #    9

  Date     :  20220120, Time     :  151811.198
------------------------------------------------------------
  Evaluating new KS density.
  Integration grid: deviation in total charge (<rho> - N_e) =   1.866607E-07
  | <rho_up-rho_dn> = N_up-N_dn =     -1.9026; <|rho_up-rho_dn|> =      1.9026
  Pulay mixing of updated and previous charge densities.

  Evaluating partitioned Hartree potential by multipole expansion.
  | Analytical far-field extrapolation by fixed multipoles:
  | Hartree multipole sum: apparent total charge =   0.560742E-06
  Summing up the Hartree potential.
  Time summed over all CPUs for potential: real work        0.033 s, elapsed        0.034 s
  | RMS charge density error from multipole expansion :   0.913278E-02

  Integrating Hamiltonian matrix: batch-based integration.
  Time summed over all CPUs for integration: real work        0.065 s, elapsed        0.066 s

  Updating Kohn-Sham eigenvalues, eigenvectors, occupation numbers, and Fermi level.
  Solving generalized eigenproblem
  Solving real symmetric generalised eigenvalue problem by standard ScaLAPACK.
  Using Cholesky factor for transformation
  Using 1-stage real ELPA solver
  Solving real symmetric generalised eigenvalue problem by standard ScaLAPACK.
  Using Cholesky factor for transformation
  Using 1-stage real ELPA solver
  Determining occupation numbers for Kohn-Sham eigenstates.
  | Chemical potential (Fermi level) in eV                 : -.24052613E+01
  | Error in electron count due to remaining E_F inaccuracy: 0.00000000E+00
  | Maximum occupation number of highest empty state:  0.00E+00

  Current spin moment of the entire structure :
  | N = N_up - N_down :    0.00
  | S                 :    0.00
  | J                 :    1.00

  Highest occupied state (VBM) at     -4.18610374 eV
  | Occupation number:      1.00000000
  | Spin channel:        2

  Lowest unoccupied state (CBM) at     2.78959451 eV
  | Occupation number:      0.00000000
  | Spin channel:        1

  Overall HOMO-LUMO gap:      6.97569825 eV.

  Total energy components:
  | Sum of eigenvalues            :          -0.32155927 Ha          -8.75007301 eV
  | XC energy correction          :          -1.37836166 Ha         -37.50712902 eV
  | XC potential correction       :           1.77304976 Ha          48.24713885 eV
  | Free-atom electrostatic energy:          -0.39994894 Ha         -10.88316443 eV
  | Hartree energy correction     :          -0.91525837 Ha         -24.90544733 eV
  | van der Waals energy corr.    :           0.00000000 Ha           0.00000000 eV
  | Entropy correction            :           0.00000000 Ha           0.00000000 eV
  | ---------------------------
  | Total energy                  :          -1.24207847 Ha         -33.79867495 eV
  | Total energy, T -> 0          :          -1.24207847 Ha         -33.79867495 eV  <-- do not rely on this value for anything but (periodic) metals
  | Electronic free energy        :          -1.24207847 Ha         -33.79867495 eV

  Derived energy quantities:
  | Kinetic energy                :           1.85249481 Ha          50.40894869 eV
  | Electrostatic energy          :          -1.71621163 Ha         -46.70049462 eV
  | Energy correction for multipole
  | error in Hartree potential    :          -0.00104153 Ha          -0.02834140 eV
  | Sum of eigenvalues per atom                           :          -4.37503651 eV
  | Total energy (T->0) per atom                          :         -16.89933747 eV  <-- do not rely on this value for anything but (periodic) metals
  | Electronic free energy per atom                       :         -16.89933747 eV

  Self-consistency convergence accuracy:
  | Change of charge/spin density : 0.1766E+00 0.2604E+00
  | Change of sum of eigenvalues  : 0.1064E+02 eV
  | Change of total energy        : -.5394E+01 eV

  End self-consistency iteration #     9       :  max(cpu_time)    wall_clock(cpu1)
  | Time for this iteration                    :        0.025 s           0.025 s
  | Charge density update                      :        0.007 s           0.006 s
  | Density mixing                             :        0.002 s           0.002 s
  | Hartree multipole update                   :        0.001 s           0.001 s
  | Hartree multipole summation                :        0.005 s           0.005 s
  | Integration                                :        0.008 s           0.008 s
  | Solution of K.-S. eqns.                    :        0.001 s           0.002 s
  | Total energy evaluation                    :        0.000 s           0.000 s
------------------------------------------------------------

------------------------------------------------------------
          Begin self-consistency iteration #   10

  Date     :  20220120, Time     :  151811.227
------------------------------------------------------------
  Evaluating new KS density.
  Integration grid: deviation in total charge (<rho> - N_e) =   1.388933E-08
  | <rho_up-rho_dn> = N_up-N_dn =     -0.0567; <|rho_up-rho_dn|> =      1.6972
  Pulay mixing of updated and previous charge densities.

  Evaluating partitioned Hartree potential by multipole expansion.
  | Analytical far-field extrapolation by fixed multipoles:
  | Hartree multipole sum: apparent total charge =  -0.350929E-06
  Summing up the Hartree potential.
  Time summed over all CPUs for potential: real work        0.033 s, elapsed        0.034 s
  | RMS charge density error from multipole expansion :   0.597481E-02

  Integrating Hamiltonian matrix: batch-based integration.
  Time summed over all CPUs for integration: real work        0.066 s, elapsed        0.067 s

  Updating Kohn-Sham eigenvalues, eigenvectors, occupation numbers, and Fermi level.
  Solving generalized eigenproblem
  Solving real symmetric generalised eigenvalue problem by standard ScaLAPACK.
  Using Cholesky factor for transformation
  Using 1-stage real ELPA solver
  Solving real symmetric generalised eigenvalue problem by standard ScaLAPACK.
  Using Cholesky factor for transformation
  Using 1-stage real ELPA solver
  Determining occupation numbers for Kohn-Sham eigenstates.
  | Chemical potential (Fermi level) in eV                 : -.49550668E+01
  | Error in electron count due to remaining E_F inaccuracy: 0.00000000E+00
  | Maximum occupation number of highest empty state:  0.00E+00

  Current spin moment of the entire structure :
  | N = N_up - N_down :    0.00
  | S                 :    0.00
  | J                 :    1.00

  Highest occupied state (VBM) at     -6.71734456 eV
  | Occupation number:      1.00000000
  | Spin channel:        2

  Lowest unoccupied state (CBM) at     1.94581453 eV
  | Occupation number:      0.00000000
  | Spin channel:        1

  Overall HOMO-LUMO gap:      8.66315908 eV.

  Total energy components:
  | Sum of eigenvalues            :          -0.50956094 Ha         -13.86585869 eV
  | XC energy correction          :          -1.00740739 Ha         -27.41294970 eV
  | XC potential correction       :           1.29318225 Ha          35.18927955 eV
  | Free-atom electrostatic energy:          -0.39994894 Ha         -10.88316443 eV
  | Hartree energy correction     :          -0.45579155 Ha         -12.40271901 eV
  | van der Waals energy corr.    :           0.00000000 Ha           0.00000000 eV
  | Entropy correction            :           0.00000000 Ha           0.00000000 eV
  | ---------------------------
  | Total energy                  :          -1.07952656 Ha         -29.37541228 eV
  | Total energy, T -> 0          :          -1.07952656 Ha         -29.37541228 eV  <-- do not rely on this value for anything but (periodic) metals
  | Electronic free energy        :          -1.07952656 Ha         -29.37541228 eV

  Derived energy quantities:
  | Kinetic energy                :           1.50906560 Ha          41.06376436 eV
  | Electrostatic energy          :          -1.58118478 Ha         -43.02622693 eV
  | Energy correction for multipole
  | error in Hartree potential    :          -0.00058048 Ha          -0.01579569 eV
  | Sum of eigenvalues per atom                           :          -6.93292934 eV
  | Total energy (T->0) per atom                          :         -14.68770614 eV  <-- do not rely on this value for anything but (periodic) metals
  | Electronic free energy per atom                       :         -14.68770614 eV

  Self-consistency convergence accuracy:
  | Change of charge/spin density : 0.7384E+00 0.3608E+00
  | Change of sum of eigenvalues  : -.5116E+01 eV
  | Change of total energy        : 0.4423E+01 eV

  End self-consistency iteration #    10       :  max(cpu_time)    wall_clock(cpu1)
  | Time for this iteration                    :        0.026 s           0.025 s
  | Charge density update                      :        0.007 s           0.006 s
  | Density mixing                             :        0.002 s           0.002 s
  | Hartree multipole update                   :        0.001 s           0.001 s
  | Hartree multipole summation                :        0.005 s           0.004 s
  | Integration                                :        0.009 s           0.009 s
  | Solution of K.-S. eqns.                    :        0.001 s           0.001 s
  | Total energy evaluation                    :        0.000 s           0.000 s
------------------------------------------------------------

------------------------------------------------------------
          Begin self-consistency iteration #   11

  Date     :  20220120, Time     :  151811.257
------------------------------------------------------------
  Evaluating new KS density.
  Integration grid: deviation in total charge (<rho> - N_e) =   1.563493E-08
  | <rho_up-rho_dn> = N_up-N_dn =     -0.0013; <|rho_up-rho_dn|> =      1.1478
  Pulay mixing of updated and previous charge densities.

  Evaluating partitioned Hartree potential by multipole expansion.
  | Analytical far-field extrapolation by fixed multipoles:
  | Hartree multipole sum: apparent total charge =  -0.879718E-07
  Summing up the Hartree potential.
  Time summed over all CPUs for potential: real work        0.033 s, elapsed        0.034 s
  | RMS charge density error from multipole expansion :   0.675237E-02

  Integrating Hamiltonian matrix: batch-based integration.
  Time summed over all CPUs for integration: real work        0.065 s, elapsed        0.067 s

  Updating Kohn-Sham eigenvalues, eigenvectors, occupation numbers, and Fermi level.
  Solving generalized eigenproblem
  Solving real symmetric generalised eigenvalue problem by standard ScaLAPACK.
  Using Cholesky factor for transformation
  Using 1-stage real ELPA solver
  Solving real symmetric generalised eigenvalue problem by standard ScaLAPACK.
  Using Cholesky factor for transformation
  Using 1-stage real ELPA solver
  Determining occupation numbers for Kohn-Sham eigenstates.
  | Chemical potential (Fermi level) in eV                 : -.42061073E+01
  | Error in electron count due to remaining E_F inaccuracy: 0.00000000E+00
  | Maximum occupation number of highest empty state:  0.00E+00

  Current spin moment of the entire structure :
  | N = N_up - N_down :    0.00
  | S                 :    0.00
  | J                 :    1.00

  Highest occupied state (VBM) at     -5.98439843 eV
  | Occupation number:      1.00000000
  | Spin channel:        2

  Lowest unoccupied state (CBM) at     2.27130384 eV
  | Occupation number:      0.00000000
  | Spin channel:        1

  Overall HOMO-LUMO gap:      8.25570227 eV.

  Total energy components:
  | Sum of eigenvalues            :          -0.45466157 Ha         -12.37197077 eV
  | XC energy correction          :          -1.09885054 Ha         -29.90124449 eV
  | XC potential correction       :           1.41136060 Ha          38.40507591 eV
  | Free-atom electrostatic energy:          -0.39994894 Ha         -10.88316443 eV
  | Hartree energy correction     :          -0.56549844 Ha         -15.38799555 eV
  | van der Waals energy corr.    :           0.00000000 Ha           0.00000000 eV
  | Entropy correction            :           0.00000000 Ha           0.00000000 eV
  | ---------------------------
  | Total energy                  :          -1.10759889 Ha         -30.13929933 eV
  | Total energy, T -> 0          :          -1.10759889 Ha         -30.13929933 eV  <-- do not rely on this value for anything but (periodic) metals
  | Electronic free energy        :          -1.10759889 Ha         -30.13929933 eV

  Derived energy quantities:
  | Kinetic energy                :           1.62497002 Ha          44.21768413 eV
  | Electrostatic energy          :          -1.63371838 Ha         -44.45573898 eV
  | Energy correction for multipole
  | error in Hartree potential    :          -0.00070220 Ha          -0.01910781 eV
  | Sum of eigenvalues per atom                           :          -6.18598539 eV
  | Total energy (T->0) per atom                          :         -15.06964967 eV  <-- do not rely on this value for anything but (periodic) metals
  | Electronic free energy per atom                       :         -15.06964967 eV

[...]
  | Change of sum of eigenvalues  : -.3585E-04 eV
  | Change of total energy        : -.3302E-09 eV

  End self-consistency iteration #    29       :  max(cpu_time)    wall_clock(cpu1)
  | Time for this iteration                    :        0.027 s           0.026 s
  | Charge density update                      :        0.007 s           0.006 s
  | Density mixing                             :        0.002 s           0.001 s
  | Hartree multipole update                   :        0.001 s           0.002 s
  | Hartree multipole summation                :        0.004 s           0.004 s
  | Integration                                :        0.010 s           0.010 s
  | Solution of K.-S. eqns.                    :        0.001 s           0.002 s
  | Total energy evaluation                    :        0.000 s           0.000 s
------------------------------------------------------------

------------------------------------------------------------
          Begin self-consistency iteration #   30

  Date     :  20220120, Time     :  151811.828
------------------------------------------------------------
  Evaluating new KS density.
  Integration grid: deviation in total charge (<rho> - N_e) =  -1.624700E-12
  | <rho_up-rho_dn> = N_up-N_dn =      0.0000; <|rho_up-rho_dn|> =      0.0000
  Pulay mixing of updated and previous charge densities.

  Evaluating partitioned Hartree potential by multipole expansion.
  | Analytical far-field extrapolation by fixed multipoles:
  | Hartree multipole sum: apparent total charge =   0.166964E-06
  Summing up the Hartree potential.
  Time summed over all CPUs for potential: real work        0.033 s, elapsed        0.034 s
  | RMS charge density error from multipole expansion :   0.101464E-02

  Integrating Hamiltonian matrix: batch-based integration.
  Time summed over all CPUs for integration: real work        0.074 s, elapsed        0.077 s

  Updating Kohn-Sham eigenvalues, eigenvectors, occupation numbers, and Fermi level.
  Solving generalized eigenproblem
  Solving real symmetric generalised eigenvalue problem by standard ScaLAPACK.
  Using Cholesky factor for transformation
  Using 1-stage real ELPA solver
  Solving real symmetric generalised eigenvalue problem by standard ScaLAPACK.
  Using Cholesky factor for transformation
  Using 1-stage real ELPA solver
  Determining occupation numbers for Kohn-Sham eigenstates.
  | Chemical potential (Fermi level) in eV                 : -.83851862E+01
  | Error in electron count due to remaining E_F inaccuracy: 0.00000000E+00
  | Maximum occupation number of highest empty state:  0.00E+00

  Current spin moment of the entire structure :
  | N = N_up - N_down :    0.00
  | S                 :    0.00
  | J                 :    1.00

  Highest occupied state (VBM) at     -9.97677630 eV
  | Occupation number:      1.00000000
  | Spin channel:        2

  Lowest unoccupied state (CBM) at     0.16753399 eV
  | Occupation number:      0.00000000
  | Spin channel:        1

  Overall HOMO-LUMO gap:     10.14431028 eV.

  Total energy components:
  | Sum of eigenvalues            :          -0.73327959 Ha         -19.95355278 eV
  | XC energy correction          :          -0.66415710 Ha         -18.07263435 eV
  | XC potential correction       :           0.85260983 Ha          23.20069388 eV
  | Free-atom electrostatic energy:          -0.39994894 Ha         -10.88316443 eV
  | Hartree energy correction     :          -0.21853338 Ha          -5.94659570 eV
  | van der Waals energy corr.    :           0.00000000 Ha           0.00000000 eV
  | Entropy correction            :           0.00000000 Ha           0.00000000 eV
  | ---------------------------
  | Total energy                  :          -1.16330918 Ha         -31.65525338 eV
  | Total energy, T -> 0          :          -1.16330918 Ha         -31.65525338 eV  <-- do not rely on this value for anything but (periodic) metals
  | Electronic free energy        :          -1.16330918 Ha         -31.65525338 eV

  Derived energy quantities:
  | Kinetic energy                :           1.06357534 Ha          28.94135756 eV
  | Electrostatic energy          :          -1.56272742 Ha         -42.52397659 eV
  | Energy correction for multipole
  | error in Hartree potential    :          -0.00009856 Ha          -0.00268206 eV
  | Sum of eigenvalues per atom                           :          -9.97677639 eV
  | Total energy (T->0) per atom                          :         -15.82762669 eV  <-- do not rely on this value for anything but (periodic) metals
  | Electronic free energy per atom                       :         -15.82762669 eV

  Self-consistency convergence accuracy:
  | Change of charge/spin density : 0.3522E-06 0.1230E-06
  | Change of sum of eigenvalues  : -.1228E-04 eV
  | Change of total energy        : -.8616E-11 eV

  End self-consistency iteration #    30       :  max(cpu_time)    wall_clock(cpu1)
  | Time for this iteration                    :        0.027 s           0.026 s
  | Charge density update                      :        0.007 s           0.006 s
  | Density mixing                             :        0.002 s           0.002 s
  | Hartree multipole update                   :        0.001 s           0.001 s
  | Hartree multipole summation                :        0.004 s           0.005 s
  | Integration                                :        0.010 s           0.009 s
  | Solution of K.-S. eqns.                    :        0.001 s           0.002 s
  | Total energy evaluation                    :        0.000 s           0.001 s
------------------------------------------------------------

------------------------------------------------------------
          Begin self-consistency iteration #   31

  Date     :  20220120, Time     :  151811.858
------------------------------------------------------------
  Evaluating new KS density.
  Integration grid: deviation in total charge (<rho> - N_e) =  -2.986500E-13
  | <rho_up-rho_dn> = N_up-N_dn =     -0.0000; <|rho_up-rho_dn|> =      0.0000
  Pulay mixing of updated and previous charge densities.

  Evaluating partitioned Hartree potential by multipole expansion.
  | Analytical far-field extrapolation by fixed multipoles:
  | Hartree multipole sum: apparent total charge =   0.166955E-06
  Summing up the Hartree potential.
  Time summed over all CPUs for potential: real work        0.033 s, elapsed        0.034 s
  | RMS charge density error from multipole expansion :   0.101464E-02

  Integrating Hamiltonian matrix: batch-based integration.
  Time summed over all CPUs for integration: real work        0.074 s, elapsed        0.077 s

  Updating Kohn-Sham eigenvalues, eigenvectors, occupation numbers, and Fermi level.
  Solving generalized eigenproblem
  Solving real symmetric generalised eigenvalue problem by standard ScaLAPACK.
  Using Cholesky factor for transformation
  Using 1-stage real ELPA solver
  Solving real symmetric generalised eigenvalue problem by standard ScaLAPACK.
  Using Cholesky factor for transformation
  Using 1-stage real ELPA solver
  Determining occupation numbers for Kohn-Sham eigenstates.
  | Chemical potential (Fermi level) in eV                 : -.83852225E+01
  | Error in electron count due to remaining E_F inaccuracy: 0.00000000E+00
  | Maximum occupation number of highest empty state:  0.00E+00

  Current spin moment of the entire structure :
  | N = N_up - N_down :    0.00
  | S                 :    0.00
  | J                 :    1.00

  Highest occupied state (VBM) at     -9.97677853 eV
  | Occupation number:      1.00000000
  | Spin channel:        1

  Lowest unoccupied state (CBM) at     0.16752993 eV
  | Occupation number:      0.00000000
  | Spin channel:        2

  Overall HOMO-LUMO gap:     10.14430846 eV.

  Total energy components:
  | Sum of eigenvalues            :          -0.73327975 Ha         -19.95355720 eV
  | XC energy correction          :          -0.66415704 Ha         -18.07263245 eV
  | XC potential correction       :           0.85260973 Ha          23.20069128 eV
  | Free-atom electrostatic energy:          -0.39994894 Ha         -10.88316443 eV
  | Hartree energy correction     :          -0.21853319 Ha          -5.94659058 eV
  | van der Waals energy corr.    :           0.00000000 Ha           0.00000000 eV
  | Entropy correction            :           0.00000000 Ha           0.00000000 eV
  | ---------------------------
  | Total energy                  :          -1.16330918 Ha         -31.65525338 eV
  | Total energy, T -> 0          :          -1.16330918 Ha         -31.65525338 eV  <-- do not rely on this value for anything but (periodic) metals
  | Electronic free energy        :          -1.16330918 Ha         -31.65525338 eV

  Derived energy quantities:
  | Kinetic energy                :           1.06357536 Ha          28.94135804 eV
  | Electrostatic energy          :          -1.56272750 Ha         -42.52397897 eV
  | Energy correction for multipole
  | error in Hartree potential    :          -0.00009856 Ha          -0.00268206 eV
  | Sum of eigenvalues per atom                           :          -9.97677860 eV
  | Total energy (T->0) per atom                          :         -15.82762669 eV  <-- do not rely on this value for anything but (periodic) metals
  | Electronic free energy per atom                       :         -15.82762669 eV

  Self-consistency convergence accuracy:
  | Change of charge/spin density : 0.1344E-06 0.6221E-07
  | Change of sum of eigenvalues  : -.4426E-05 eV
  | Change of total energy        : -.1486E-11 eV

  Writing Kohn-Sham eigenvalues.

  Spin-up eigenvalues:

  State    Occupation    Eigenvalue [Ha]    Eigenvalue [eV]
      1       1.00000          -0.366640           -9.97678
      2       0.00000           0.006157            0.16753
      3       0.00000           0.046503            1.26540
      4       0.00000           0.150042            4.08284
      5       0.00000           0.311819            8.48504
      6       0.00000           0.311819            8.48504
      7       0.00000           0.373462           10.16243
      8       0.00000           0.530653           14.43980
      9       0.00000           0.723222           19.67987
     10       0.00000           0.744565           20.26065
     11       0.00000           0.744565           20.26065

  Spin-down eigenvalues:

  State    Occupation    Eigenvalue [Ha]    Eigenvalue [eV]
      1       1.00000          -0.366640           -9.97678
      2       0.00000           0.006157            0.16753
      3       0.00000           0.046503            1.26540
      4       0.00000           0.150042            4.08284
      5       0.00000           0.311819            8.48504
      6       0.00000           0.311819            8.48504
      7       0.00000           0.373462           10.16243
      8       0.00000           0.530653           14.43980
      9       0.00000           0.723222           19.67987
     10       0.00000           0.744565           20.26065
     11       0.00000           0.744565           20.26065

  Current spin moment of the entire structure :
  | N = N_up - N_down :    0.00
  | S                 :    0.00
  | J                 :    1.00

  Highest occupied state (VBM) at     -9.97677853 eV
  | Occupation number:      1.00000000
  | Spin channel:        1

  Lowest unoccupied state (CBM) at     0.16752993 eV
  | Occupation number:      0.00000000
  | Spin channel:        2

  Overall HOMO-LUMO gap:     10.14430846 eV.

  Self-consistency cycle converged.

  End self-consistency iteration #    31       :  max(cpu_time)    wall_clock(cpu1)
  | Time for this iteration                    :        0.026 s           0.027 s
  | Charge density update                      :        0.006 s           0.006 s
  | Density mixing                             :        0.002 s           0.002 s
  | Hartree multipole update                   :        0.001 s           0.001 s
  | Hartree multipole summation                :        0.005 s           0.005 s
  | Integration                                :        0.010 s           0.009 s
  | Solution of K.-S. eqns.                    :        0.001 s           0.002 s
  | Total energy evaluation                    :        0.000 s           0.001 s
------------------------------------------------------------
  Obtaining max. number of non-zero basis functions in each batch .
  Evaluating KS electron density on previously omitted grid points.
  Evaluating non-empirical van der Waals correction (Tkatchenko/Scheffler 2009).
  Performing Hirshfeld analysis of fragment charges and moments.
  ----------------------------------------------------------------------
  | Atom     1: H
  |   Hirshfeld charge        :     -0.00000047
  |   Free atom volume        :     10.31539447
  |   Hirshfeld volume        :      5.76056474
  |   Hirshfeld spin moment   :     -0.00000003
  |   Hirshfeld dipole vector :     -0.00000000       0.00000000      -0.08529048
  |   Hirshfeld dipole moment :      0.08529048
  |   Hirshfeld second moments:      0.10705147       0.00000000       0.00000000
  |                                  0.00000000       0.10705147      -0.00000000
  |                                  0.00000000      -0.00000000       0.10820424
  ----------------------------------------------------------------------
  | Atom     2: H
  |   Hirshfeld charge        :     -0.00000047
  |   Free atom volume        :     10.31539447
  |   Hirshfeld volume        :      5.76056474
  |   Hirshfeld spin moment   :     -0.00000003
  |   Hirshfeld dipole vector :      0.00000000      -0.00000000       0.08529048
  |   Hirshfeld dipole moment :      0.08529048
  |   Hirshfeld second moments:      0.10705147       0.00000000       0.00000000
  |                                  0.00000000       0.10705147      -0.00000000
  |                                  0.00000000      -0.00000000       0.10820424
  ----------------------------------------------------------------------


  Total energy components:
  | Sum of eigenvalues            :          -0.73327975 Ha         -19.95355720 eV
  | XC energy correction          :          -0.66415704 Ha         -18.07263245 eV
  | XC potential correction       :           0.85260973 Ha          23.20069128 eV
  | Free-atom electrostatic energy:          -0.39994894 Ha         -10.88316443 eV
  | Hartree energy correction     :          -0.21853319 Ha          -5.94659058 eV
  | van der Waals energy corr.    :          -0.00000019 Ha          -0.00000527 eV
  | Entropy correction            :           0.00000000 Ha           0.00000000 eV
  | ---------------------------
  | Total energy                  :          -1.16330937 Ha         -31.65525865 eV
  | Total energy, T -> 0          :          -1.16330937 Ha         -31.65525865 eV  <-- do not rely on this value for anything but (periodic) metals
  | Electronic free energy        :          -1.16330937 Ha         -31.65525865 eV

  Derived energy quantities:
  | Kinetic energy                :           1.06357536 Ha          28.94135804 eV
  | Electrostatic energy          :          -1.56272750 Ha         -42.52397897 eV
  | Energy correction for multipole
  | error in Hartree potential    :          -0.00009856 Ha          -0.00268206 eV
  | Sum of eigenvalues per atom                           :          -9.97677860 eV
  | Total energy (T->0) per atom                          :         -15.82762932 eV  <-- do not rely on this value for anything but (periodic) metals
  | Electronic free energy per atom                       :         -15.82762932 eV
  Timings for VdW correction (Tkatchenko-Scheffler 2009 or later):
  | CPU time:        0.004 s, Wall clock time:        0.003 s.

  Energy and forces in a compact form:
  | Total energy uncorrected      :         -0.316552586486366E+02 eV
  | Total energy corrected        :         -0.316552586486366E+02 eV  <-- do not rely on this value for anything but (periodic) metals
  | Electronic free energy        :         -0.316552586486366E+02 eV

  ------------------------------------ 
  Start decomposition of the XC Energy 
  ------------------------------------ 
  Hartree-Fock part   :          0.000000000 Ha              0.000000000 eV
  ------------------------------------ 
  X Energy            :         -0.621714542 Ha            -16.917713450 eV
  C Energy GGA        :         -0.042442493 Ha             -1.154919000 eV
  Total XC Energy     :         -0.664157035 Ha            -18.072632450 eV
  LDA X and C from self-consistent density 
  X Energy LDA        :         -0.543100529 Ha            -14.778517305 eV
  C Energy LDA        :         -0.092850038 Ha             -2.526578095 eV
  ------------------------------------ 
  End decomposition of the XC Energy 
  ------------------------------------ 

------------------------------------------------------------------------------
  Final output of selected total energy values:

  The following output summarizes some interesting total energy values
  at the end of a run (AFTER all relaxation, molecular dynamics, etc.).

  | Total energy of the DFT / Hartree-Fock s.c.f. calculation      :            -31.655258649 eV
  | Final zero-broadening corrected energy (caution - metals only) :            -31.655258649 eV
  | For reference only, the value of 1 Hartree used in FHI-aims is :             27.211384500 eV

  Before relying on these values, please be sure to understand exactly which
  total energy value is referred to by a given number. Different objects may
  all carry the same name 'total energy'. Definitions:

  Total energy of the DFT / Hartree-Fock s.c.f. calculation:
  | Note that this energy does not include ANY quantities calculated after the
  | s.c.f. cycle, in particular not ANY RPA, MP2, etc. many-body perturbation terms.

  Final zero-broadening corrected energy:
  | For metallic systems only, a broadening of the occupation numbers at the Fermi
  | level can be extrapolated back to zero broadening by an electron-gas inspired
  | formula. For all systems that are not real metals, this value can be
  | meaningless and should be avoided.

------------------------------------------------------------------------------

------------------------------------------------------------
          Leaving FHI-aims.
          Date     :  20220120, Time     :  151811.895

          Computational steps:
          | Number of self-consistency cycles          :           31

          Detailed time accounting                     :  max(cpu_time)    wall_clock(cpu1)
          | Total time                                 :        1.017 s           1.151 s
          | Preparation time                           :        0.077 s           0.078 s
          | Grid partitioning                          :        0.007 s           0.007 s
          | Preloading free-atom quantities on grid    :        0.004 s           0.004 s
          | Free-atom superposition energy             :        0.003 s           0.003 s
          | Total time for integrations                :        0.306 s           0.306 s
          | Total time for solution of K.-S. equations :        0.051 s           0.059 s
          | Total time for density update              :        0.219 s           0.193 s
          | Total time for mixing                      :        0.053 s           0.056 s
          | Total time for Hartree multipole update    :        0.042 s           0.042 s
          | Total time for Hartree multipole sum       :        0.151 s           0.155 s
          | Total time for total energy evaluation     :        0.005 s           0.018 s
          | Total time for scaled ZORA corrections     :        0.000 s           0.000 s
          | Total time for vdW correction              :        0.004 s           0.003 s

          Have a nice day.
------------------------------------------------------------
