  MPI-parallelism will be employed.
------------------------------------------------------------
          Invoking FHI-aims ...
          Version 052014
          Git rev. (modified): 096c982 Merge branch master of fhiaims:/pub/localo[...]
          Compiled on 2016/12/16 at 15:22:01 on host login02.hpc.iitd.ac.in.

          When using FHI-aims, please cite the following reference:

          Volker Blum, Ralf Gehrke, Felix Hanke, Paula Havu,
          Ville Havu, Xinguo Ren, Karsten Reuter, and Matthias Scheffler,
          'Ab Initio Molecular Simulations with Numeric Atom-Centered Orbitals: FHI-aims',
          Computer Physics Communications 180, 2175-2196 (2009)

          For any questions about FHI-aims, please visit the aimsclub website
          with its forums and wiki. Contributions to both the forums and the
          wiki are warmly encouraged - they are for you, and everyone is welcome there.

------------------------------------------------------------

  Date     :  20220221, Time     :  151607.917
  Time zero on CPU 1             :   0.220740000000000E-01  s.
  Internal wall clock time zero  :           414688567.917  s.

  Using        8 parallel tasks.
  Task        0 on host csky105 reporting.
  Task        1 on host csky105 reporting.
  Task        2 on host csky105 reporting.
  Task        3 on host csky105 reporting.
  Task        4 on host csky105 reporting.
  Task        5 on host csky105 reporting.
  Task        6 on host csky105 reporting.
  Task        7 on host csky105 reporting.

  Performing system and environment tests:
  | Environment variable OMP_NUM_THREADS correctly set to 1.
  | Stacksize not measured: no C compiler
  | Checking for scalapack...
  | Testing pdtran()...
  | All pdtran() tests passed.

  Obtaining array dimensions for all initial allocations:
  
  -----------------------------------------------------------------------
  Parsing control.in (first pass over file, find array dimensions only).
  The contents of control.in will be repeated verbatim below
  unless switched off by setting 'verbatim_writeout .false.' .
  in the first line of control.in .
  -----------------------------------------------------------------------
  
    xc               pbe
    spin             collinear
    default_initial_moment hund
    relativistic     atomic_zora scalar 1e-9
    occupation_type  gaussian 0.001
    charge	0
    vdw_correction_hirshfeld
    KS_method        scalapack_fast
    mixer            pulay
    charge_mix_param  0.4
    spin_mix_param    0.6
    sc_accuracy_rho  1E-4
    sc_accuracy_eev  1E-5
    sc_accuracy_etot 1E-5
    sc_iter_limit    100
    empty_states     5
    ####### keywords for DOS########
    k_grid  5 5 1
  ##########################
  #  relax_geometry trm 5E-5
  #  sc_accuracy_forces 1e-6
  ##########################
    output dos -20 20 10000 0.01
    dos_kgrid_factors 2 2 1
  
  ################################################################################
  #
  #  FHI-aims code project
  # Volker Blum, Fritz Haber Institute Berlin, 2009
  #
  #  Suggested "tight" defaults for C atom (to be pasted into control.in file)
  #
  ################################################################################
    species        C
  #     global species definitions
      nucleus             6
      mass                12.0107
  #
      l_hartree           6
  #
      cut_pot             4.0  2.0  1.0
      basis_dep_cutoff    1e-4
  #
      radial_base         34 7.0
      radial_multiplier   2
      angular_grids specified
        division   0.2187   50
        division   0.4416  110
        division   0.6335  194
        division   0.7727  302
        division   0.8772  434
  #      division   0.9334  590
  #      division   0.9924  770
  #      division   1.0230  974
  #      division   1.5020 1202
  #     outer_grid  974
        outer_grid  434
  ################################################################################
  #
  #  Definition of "minimal" basis
  #
  ################################################################################
  #     valence basis states
      valence      2  s   2.
      valence      2  p   2.
  #     ion occupancy
      ion_occ      2  s   1.
      ion_occ      2  p   1.
  ################################################################################
  #
  #  Suggested additional basis functions. For production calculations,
  #  uncomment them one after another (the most important basis functions are
  #  listed first).
  #
  #  Constructed for dimers: 1.0 A, 1.25 A, 1.5 A, 2.0 A, 3.0 A
  #
  ################################################################################
  #  "First tier" - improvements: -1214.57 meV to -155.61 meV
       hydro 2 p 1.7
       hydro 3 d 6
       hydro 2 s 4.9
  #  "Second tier" - improvements: -67.75 meV to -5.23 meV
       hydro 4 f 9.8
       hydro 3 p 5.2
       hydro 3 s 4.3
       hydro 5 g 14.4
       hydro 3 d 6.2
  #  "Third tier" - improvements: -2.43 meV to -0.60 meV
  #     hydro 2 p 5.6
  #     hydro 2 s 1.4
  #     hydro 3 d 4.9
  #     hydro 4 f 11.2
  #  "Fourth tier" - improvements: -0.39 meV to -0.18 meV
  #     hydro 2 p 2.1
  #     hydro 5 g 16.4
  #     hydro 4 d 13.2
  #     hydro 3 s 13.6
  #     hydro 4 f 17.6
  #  Further basis functions - improvements: -0.08 meV and below
  #     hydro 3 s 2
  #     hydro 3 p 6
  #     hydro 4 d 20
  ################################################################################
  #
  # For methods that use the localized form of the "resolution of identity" for
  # the two-electron Coulomb operator (RI_method LVL), particularly Hartree-Fock and
  # hybrid density functional calculations, the highest accuracy can be obtained by
  # uncommenting the line beginning with "for_aux"  below, thus adding an extra g radial
  # function to the construction of the product basis set for the expansion.
  # See Ref. New J. Phys. 17, 093020 (2015) for more information, particularly Figs. 1 and 6.
  #
  ################################################################################
  #
  # for_aux hydro 5 g 6.0
  
  -----------------------------------------------------------------------
  Completed first pass over input file control.in .
  -----------------------------------------------------------------------
  
  
  -----------------------------------------------------------------------
  Parsing geometry.in (first pass over file, find array dimensions only).
  The contents of geometry.in will be repeated verbatim below
  unless switched off by setting 'verbatim_writeout .false.' .
  in the first line of geometry.in .
  -----------------------------------------------------------------------
  
  lattice_vector   2.1304216  -1.2299995   0.0000000
  lattice_vector   0.0000000   2.4599989   0.0000000
  lattice_vector   0.0000000   0.0000000   6.8000000
  
  atom_frac                      -0.666667  -0.333333   0.500000  C
  atom_frac                       0.666667   0.333333   0.500000  C
  
  
  -----------------------------------------------------------------------
  Completed first pass over input file geometry.in .
  -----------------------------------------------------------------------
  

  Basic array size parameters:
  | Number of species                 :        1
  | Number of atoms                   :        2
  | Number of lattice vectors         :        3
  | Max. basis fn. angular momentum   :        4
  | Max. atomic/ionic basis occupied n:        2
  | Max. number of basis fn. types    :        2
  | Max. radial fns per species/type  :        8
  | Max. logarithmic grid size        :     1277
  | Max. radial integration grid size :       69
  | Max. angular integration grid size:      434
  | Max. angular grid division number :        8
  | Radial grid for Hartree potential :     1277
  | Number of spin channels           :        2

------------------------------------------------------------
          Reading file control.in.
------------------------------------------------------------
  XC: Using PBE gradient-corrected functionals.
  Spin treatment: Spin density functional theory - collinear spins.
  Initial spin moment per atom set according to Hund's rules.
  Scalar relativistic treatment of kinetic energy: on-site free-atom approximation to ZORA.
  Occupation type: Gaussian broadening, width =   0.100000E-02 eV.
  Charge =   0.000000E+00: Neutral system requested explicitly.
  Using non-empirical van der Waals correction (Hirshfeld partitioning):
  Kohn-Sham eigenvalues and eigenfunctions calculated by the ELPA eigensolver library.
  Using pulay charge density mixing.
  Charge density mixing - mixing parameter:     0.4000
  Spin density mixing - mixing parameter:     0.6000
  Convergence accuracy of self-consistent charge density: 0.1000E-03
  Convergence accuracy of sum of eigenvalues: 0.1000E-04
  Convergence accuracy of total energy: 0.1000E-04
  Maximum number of s.-c. iterations  :   100
  Number of empty states per atom:        5
  Found k-point grid:         5         5         1
  Calculating density of states with
  | energy interval :-20.000000 20.000000
  | points & broadening : 10000  0.010000
  Found k-point grid multipliers for perturbative DOS :         2         2         1
 
  Reading configuration options for species C                   .
  | Found nuclear charge :   6.0000
  | Found atomic mass :    12.0107000000000      amu
  | Found l_max for Hartree potential  :   6
  | Found cutoff potl. onset [A], width [A], scale factor :    4.00000    2.00000    1.00000
  | Threshold for basis-dependent cutoff potential is   0.100000E-03
  | Found data for basic radial integration grid :    34 points, outermost radius =    7.000 A
  | Found multiplier for basic radial grid :   2
  | Found angular grid specification: user-specified.
  | Specified grid contains     6 separate shells.
  | Check grid settings after all constraints further below.
  | Found free-atom valence shell :  2 s   2.000
  | Found free-atom valence shell :  2 p   2.000
  | No ionic wave fns used. Skipping ion_occ.
  | No ionic wave fns used. Skipping ion_occ.
  | Found hydrogenic basis function :  2 p   1.700
  | Found hydrogenic basis function :  3 d   6.000
  | Found hydrogenic basis function :  2 s   4.900
  | Found hydrogenic basis function :  4 f   9.800
  | Found hydrogenic basis function :  3 p   5.200
  | Found hydrogenic basis function :  3 s   4.300
  | Found hydrogenic basis function :  5 g  14.400
  | Found hydrogenic basis function :  3 d   6.200
  Species C                   : Missing cutoff potential type.
  Defaulting to exp(1/x)/(1-x)^2 type cutoff potential.
  Species C : No 'logarithmic' tag. Using default grid for free atom:
  | Default logarithmic grid data [bohr] : 0.1000E-03 0.1000E+03 0.1012E+01
  Species C : On-site basis accuracy parameter (for Gram-Schmidt orthonormalisation) not specified.
  Using default value basis_acc =  0.1000000E-03.
  Species C                   : Using default innermost maximum threshold i_radial=  2 for radial functions.
  Species C                   : Default cutoff onset for free atom density etc. : 0.40000000E+01 AA.
  Species C                   : Basic radial grid will be enhanced according to radial_multiplier =   2, to contain    69 grid points.
 
  Finished reading input file 'control.in'. Consistency checks are next.
 
  Target number of points in a grid batch is not set. Defaulting to  100
  Method for grid partitioning is not set. Defaulting to parallel hash+maxmin partitioning.
  Batch size limit is not set. Defaulting to    200
  By default, will store active basis functions for each batch.
  If in need of memory, prune_basis_once .false. can be used to disable this option.
  communication_type for Hartree potential was not specified.
  Defaulting to calc_hartree .
  Pulay mixer: Number of relevant iterations not set.
  Defaulting to    8 iterations.
  Pulay mixer: Number of initial linear mixing iterations not set.
  Defaulting to    0 iterations.
  Work space size for distributed Hartree potential not set.
  Defaulting to   0.200000E+03 MB.
  Algorithm-dependent basis array size parameters:
  | n_max_pulay                         :        8
  Calculation of forces was not defined in control.in. No forces will be calculated.
  Geometry relaxation not requested: no relaxation will be performed.
  No accuracy limit for integral partition fn. given. Defaulting to 0.1000E-14.
  No threshold value for u(r) in integrations given. Defaulting to 0.1000E-05.
  No accuracy for occupation numbers given. Defaulting to 0.1000E-07.
  No threshold value for occupation numbers given. Defaulting to 0.0000E+00.
  No accuracy for fermi level given. Defaulting to 0.1000E-19.
  Maximum # of iterations to find E_F not set. Defaulting to  200.
 * You have    25 k-points in your system, but only     8 MPI-tasks available.
 * In this case using ScaLAPACK is not necessary / supported.
 * Switching to default eigenvalue solver (lapack_fast) instead.
  Will not use alltoall communication since running on < 1024 CPUs.
  Threshold for basis singularities not set.
  Default threshold for basis singularities: 0.1000E-04
  partition_type (choice of integration weights) for integrals was not specified.
  | Using a version of the partition function of Stratmann and coworkers ('stratmann_smoother').
  | At each grid point, the set of atoms used to build the partition table is smoothly restricted to
  | only those atoms whose free-atom density would be non-zero at that grid point.
  Partitioning for Hartree potential was not defined. Using partition_type for integrals.
  | Adjusted default value of keyword multip_moments_threshold to:       0.10000000E-11
  | This value may affect high angular momentum components of the Hartree potential in periodic systems.
  Angular momentum expansion for Kerker preconditioner not set explicitly.
  | Using default value of   0
  No explicit requirement for turning off preconditioner.
  | By default, it will be turned off when the charge convergence reaches
  | sc_accuracy_rho  =   0.100000E-03
  | sc_accuracy_eev  =   0.100000E-04
  | sc_accuracy_etot =   0.100000E-04
  No special mixing parameter while Kerker preconditioner is on.
  Using default: charge_mix_param =     0.4000.
  No q(lm)/r^(l+1) cutoff set for long-range Hartree potential.
  | Using default value of  0.100000E-09 .
  | Verify using the multipole_threshold keyword.
  Defaulting to new monopole extrapolation.
  Density update method: automatic selection selected.
  Using density matrix based charge density update.
  Using density matrix based charge density update.
  Using packed matrix style: index .
  Defaulting to use time-reversal symmetry for k-point grid.
  Using the following vdw_convergence_threshold for supercell sums
  over the Tkatchenko-Scheffler correction: 0.100000E-04 eV.
------------------------------------------------------------


------------------------------------------------------------
          Reading geometry description geometry.in.
------------------------------------------------------------
  Input structure read successfully.
  The structure contains        2 atoms,  and a total of         12.000 electrons.

  Input geometry:
  | Unit cell:
  |         2.130422        -1.229999         0.000000
  |         0.000000         2.459999         0.000000
  |         0.000000         0.000000         6.800000
  | Atomic structure:
  |       Atom                x [A]            y [A]            z [A]
  |    1: Species C             -1.420282         0.000001         3.400000
  |    2: Species C              1.420282        -0.000001         3.400000
  |

  | The smallest distance between any two atoms is         1.42027960 AA.
  |
  | The first atom of this pair is atom number                      2 .
  | The second atom of this pair is atom number                     1 .
  | Wigner-Seitz cell of the first atom image           1     0     0 .
  | (The Wigner-Seitz cell of the second atom is 0 0 0  by definition.)

  Quantities derived from the lattice vectors:
  | Reciprocal lattice vector 1:  2.949268 -0.000000  0.000000
  | Reciprocal lattice vector 2:  1.474634  2.554142  0.000000
  | Reciprocal lattice vector 3:  0.000000  0.000000  0.923998
  | Unit cell volume                               :   0.356377E+02  A^3

  Initial moments and charges:
  |  Atom   Moment         Charge        Species
  |     1  (Hund's rule)   0.000000E+00   C
  |     2  (Hund's rule)   0.000000E+00   C

  Structure-dependent array size parameters: 
  | Number of distinct atom types in initial rho :        1
  | Maximum number of distinct radial functions  :       11
  | Maximum number of basis functions            :       78
  | Number of Kohn-Sham states (occupied + empty):       11
------------------------------------------------------------

------------------------------------------------------------
          Preparing all fixed parts of the calculation.
------------------------------------------------------------
  Determining machine precision:
    2.225073858507201E-308
  Setting up grids for atomic and cluster calculations.

  Creating wave function, potential, and density for free atoms.

  Species: C

  List of occupied orbitals and eigenvalues:
    n    l              occ      energy [Ha]    energy [eV]
    1    0           2.0000       -10.049212      -273.4530
    2    0           2.0000        -0.504761       -13.7352
    2    1           2.0000        -0.193631        -5.2690

  Spin-polarized or charged system:
  Charge density initialized according to selected moments and charges.

  Creating spin-polarized density from free atoms.

  Species: C
  Charge:   0.000000
  applying Hund's rules ...

  List of occupied orbitals and eigenvalues:
    n    l      energy [Ha]    energy [eV]    occupation
  Spin-up
    1    0       -10.040873      -273.2261     1.00000000
    2    0        -0.537730       -14.6324     1.00000000
    2    1        -0.223635        -6.0854     2.00000000
  Spin-down
    1    0       -10.011077      -272.4153     1.00000000
    2    0        -0.436278       -11.8717     1.00000000
    2    1        -0.132089        -3.5943     0.00000000

  Creating fixed part of basis set: Ionic, confined, hydrogenic.
 
  C                    hydrogenic:
 
  List of hydrogenic basis orbitals: 
    n    l      effective z      eigenvalue [eV]  inner max. [A]     outer max. [A]     outer radius [A]   
    2    1         1.700000        -9.8152           1.245706           1.245706           5.401630
    3    2         6.000000       -54.4226           0.792453           0.792453           4.178599
    2    0         4.900000       -81.6681           0.082559           0.562749           3.353238
    4    3         9.800000       -81.6681           0.863254           0.863254           4.028125
    3    1         5.200000       -40.8774           0.305389           1.215618           4.898362
    3    0         4.300000       -27.9508           0.091041           1.610311           5.401630
    5    4        14.400000      -112.8510           0.917666           0.917666           3.883070
    3    2         6.200000       -58.1113           0.763917           0.763917           4.077671
 

  Adding cutoff potential to free-atom effective potential.
  Creating atomic-like basis functions for current effective potential.

  Species C                   :

  List of atomic basis orbitals and eigenvalues:
    n    l      energy [Ha]    energy [eV]    outer radius [A]
    1    0       -10.049212      -273.4530       1.934409
    2    0        -0.504761       -13.7352       5.271162
    2    1        -0.193631        -5.2690       5.401630

  Assembling full basis from fixed parts.
  | Species C :   atomic orbital   1 s accepted.
  | Species C :    hydro orbital   2 s accepted.
  | Species C :   atomic orbital   2 s accepted.
  | Species C :    hydro orbital   3 s accepted.
  | Species C :    hydro orbital   3 p accepted.
  | Species C :   atomic orbital   2 p accepted.
  | Species C :    hydro orbital   2 p accepted.
  | Species C :    hydro orbital   3 d accepted.
  | Species C :    hydro orbital   3 d accepted.
  | Species C :    hydro orbital   4 f accepted.
  | Species C :    hydro orbital   5 g accepted.
 
  Basis size parameters after reduction:
  | Total number of radial functions:       11
  | Total number of basis functions :       78
 
  Testing on-site integration grid accuracy.
  |  Species  Function  <phi|h_atom|phi> (log., in eV)  <phi|h_atom|phi> (rad., in eV)
           1        1               -273.4529725981               -273.4529710451
           1        2                -10.7721037329                -10.7721022102
           1        3                 17.6044132585                 17.6044162052
           1        4                 53.7706460564                 53.7706913681
           1        5                 15.0973290351                 15.0973256011
           1        6                  3.8545134677                  3.8545724657
           1        7                 12.1156992586                 12.1182024423
           1        8                 29.4352039288                 29.4352041805
           1        9                 54.8741144697                 54.8740268719
           1       10                 59.3556032036                 59.3556031370
           1       11                 93.4551837140                 93.4551837996

  Preparing densities etc. for the partition functions (integrals / Hartree potential).

  Preparations completed.
  max(cpu_time)          :      0.162 s.
  Wall clock time (cpu1) :      0.172 s.
------------------------------------------------------------

------------------------------------------------------------
          Begin self-consistency loop: Initialization.

          Date     :  20220221, Time     :  151608.163
------------------------------------------------------------

  Initializing index lists of integration centers etc. from given atomic structure:
  Mapping all atomic coordinates to central unit cell.

  Initializing the k-points
          Using symmetry for reducing the k-points
  | k-points reduced from:       25 to       13
  | Number of k-points                             :        13
  The eigenvectors in the calculations are COMPLEX.
  | K-points in task   0:         1
  | K-points in task   1:         2
  | K-points in task   2:         2
  | K-points in task   3:         2
  | K-points in task   4:         2
  | K-points in task   5:         2
  | K-points in task   6:         1
  | K-points in task   7:         1
  | Number of basis functions in the Hamiltonian integrals :      3472
  | Number of basis functions in a single unit cell        :        78
  | Number of centers in hartree potential         :       646
  | Number of centers in hartree multipole         :       548
  | Number of centers in electron density summation:       428
  | Number of centers in basis integrals           :       456
  | Number of centers in integrals                 :       136
  | Consuming         47 KiB for k_phase.
  | Number of super-cells :                 234
  | Size of matrix packed + index :      284874
  Perform CPU consistency test for lattice for partition grid
  Perform CPU consistency test for map_to_center_cell_matrix for partition grid
  Partitioning the integration grid into batches with parallel hashing+maxmin method.
  | Number of batches:      496
  | Maximal batch size:     108
  | Minimal batch size:      50
  | Average batch size:      72.895
  | Standard deviation of batch sizes:      20.938

  Integration load balanced across     8 MPI tasks.
  Work distribution over tasks is as follows:
  Task     0 has       4522 integration points.
  Task     1 has       4521 integration points.
  Task     2 has       4485 integration points.
  Task     3 has       4502 integration points.
  Task     4 has       4502 integration points.
  Task     5 has       4538 integration points.
  Task     6 has       4549 integration points.
  Task     7 has       4537 integration points.
  Initializing partition tables, free-atom densities, potentials, etc. across the integration grid (initialize_grid_storage).
  | initialize_grid_storage: Actual outermost partition radius vs. multipole_radius_free
  | (-- VB: in principle, multipole_radius_free should be larger, hence this output)
  | Species        1: outer_partition_radius =              6.000000000000000 AA, multipole_radius_free =              6.029870734432609 AA.
  | Original list of interatomic distances with         456 x        456 entries is created.
  | Net number of integration points:    36156
  | of which are non-zero points    :    26826
  | Numerical average free-atom electrostatic potential    :     -6.92761138 eV
  Obtaining max. number of non-zero basis functions in each batch (get_n_compute_maxes).
  | Maximal number of non-zero basis functions:     1323 in task     0
  | Maximal number of non-zero basis functions:     1222 in task     1
  | Maximal number of non-zero basis functions:     1309 in task     2
  | Maximal number of non-zero basis functions:     1309 in task     3
  | Maximal number of non-zero basis functions:     1309 in task     4
  | Maximal number of non-zero basis functions:     1309 in task     5
  | Maximal number of non-zero basis functions:     1318 in task     6
  | Maximal number of non-zero basis functions:     1309 in task     7
  Integrating Hamiltonian matrix: batch-based integration.
  Time summed over all CPUs for integration: real work       14.180 s, elapsed       14.498 s
  Integrating overlap matrix.
  Time summed over all CPUs for integration: real work        5.911 s, elapsed        6.058 s
  Decreasing sparse matrix size:
   Tolerance:  9.999999824516700E-014
   Hamiltonian matrix
  | Array has   179225 nonzero elements out of   284874 elements
  | Sparsity factor is 0.371
   Overlap matrix
  | Array has   161147 nonzero elements out of   284874 elements
  | Sparsity factor is 0.434
  New size of hamiltonian matrix:      180040

  Updating Kohn-Sham eigenvalues, eigenvectors, occupation numbers, and Fermi level.
  Solving generalized eigenproblem
  Transforming overlap matrix and checking for singularities.
  Overlap matrix is nonsingular at first k-point:
  | Lowest eigenvalue:  0.153553E-03
  Determining occupation numbers for Kohn-Sham eigenstates.
  | Chemical potential (Fermi level) in eV                 : -.80314102E+01
  | Error in electron count due to remaining E_F inaccuracy: 0.88817842E-14
  | Maximum occupation number of highest empty state:  0.00E+00

  Writing Kohn-Sham eigenvalues.

  Spin-up eigenvalues:
  K-point:       1 at    0.000000    0.000000    0.000000 (in units of recip. lattice)

  State    Occupation    Eigenvalue [Ha]    Eigenvalue [eV]
      1       1.00000         -10.181848         -277.06218
      2       1.00000         -10.180882         -277.03589
      3       1.00000          -1.102207          -29.99257
      4       1.00000          -0.620114          -16.87417
      5       1.00000          -0.528020          -14.36816
      6       1.00000          -0.528017          -14.36806
      7       0.00000          -0.085400           -2.32384
      8       0.00000          -0.085394           -2.32369
      9       0.00000          -0.024009           -0.65332
     10       0.00000           0.040709            1.10776
     11       0.00000           0.048401            1.31707

  Spin-down eigenvalues:
  K-point:       1 at    0.000000    0.000000    0.000000 (in units of recip. lattice)

  State    Occupation    Eigenvalue [Ha]    Eigenvalue [eV]
      1       1.00000         -10.149912         -276.19315
      2       1.00000         -10.148980         -276.16780
      3       1.00000          -0.975509          -26.54495
      4       1.00000          -0.506695          -13.78788
      5       1.00000          -0.396552          -10.79073
      6       1.00000          -0.396548          -10.79063
      7       0.00000           0.040540            1.10314
      8       0.00000           0.040544            1.10325
      9       0.00000           0.041938            1.14118
     10       0.00000           0.094711            2.57721
     11       0.00000           0.163747            4.45578

  Current spin moment of the entire structure :
  | N = N_up - N_down (sum over all k points):         0.46154
  | S (sum over all k points)                :         0.23077

  What follows are estimated values for band gap, HOMO, LUMO, etc.
  | They are estimated on a discrete k-point grid and not necessarily exact.
  | For converged numbers, create a DOS and/or band structure plot on a denser k-grid.

  Highest occupied state (VBM) at     -8.27350639 eV (relative to internal zero)
  | Occupation number:      1.00000000
  | K-point:       9 at    0.400000    0.400000    0.000000 (in units of recip. lattice)
  | Spin channel:        1

  Lowest unoccupied state (CBM) at    -7.89028221 eV (relative to internal zero)
  | Occupation number:      0.00000000
  | K-point:       9 at    0.400000    0.400000    0.000000 (in units of recip. lattice)
  | Spin channel:        2

  ESTIMATED overall HOMO-LUMO gap:      0.38322418 eV between HOMO at k-point 9 and LUMO at k-point 9
  | This appears to be a direct band gap.
  The gap value is above 0.2 eV. Unless you are using a very sparse k-point grid,
  this system is most likely an insulator or a semiconductor.
  Calculating total energy contributions from superposition of free atom densities.

  Total energy components:
  | Sum of eigenvalues            :         -45.93654393 Ha       -1249.99695955 eV
  | XC energy correction          :         -10.83312258 Ha        -294.78426400 eV
  | XC potential correction       :          13.93338521 Ha         379.14670243 eV
  | Free-atom electrostatic energy:         -33.32004492 Ha        -906.68455390 eV
  | Hartree energy correction     :           0.00000000 Ha           0.00000000 eV
  | van der Waals energy corr.    :           0.00000000 Ha           0.00000000 eV
  | Entropy correction            :           0.00000000 Ha           0.00000000 eV
  | ---------------------------
  | Total energy                  :         -76.15632622 Ha       -2072.31907502 eV
  | Total energy, T -> 0          :         -76.15632622 Ha       -2072.31907502 eV  <-- do not rely on this value for anything but (periodic) metals
  | Electronic free energy        :         -76.15632622 Ha       -2072.31907502 eV

  Derived energy quantities:
  | Kinetic energy                :          76.18516239 Ha        2073.10374707 eV
  | Electrostatic energy          :        -141.50836603 Ha       -3850.63855809 eV
  | Energy correction for multipole
  | error in Hartree potential    :           0.00000000 Ha           0.00000000 eV
  | Sum of eigenvalues per atom                           :        -624.99847978 eV
  | Total energy (T->0) per atom                          :       -1036.15953751 eV  <-- do not rely on this value for anything but (periodic) metals
  | Electronic free energy per atom                       :       -1036.15953751 eV
  Initialize hartree_potential_storage
  Max. number of atoms included in rho_multipole:            2

  End scf initialization - timings             :  max(cpu_time)    wall_clock(cpu1)
  | Time for scf. initialization               :        3.087 s           3.108 s
  | Boundary condition initialization          :        0.070 s           0.070 s
  | Integration                                :        2.584 s           2.590 s
  | Solution of K.-S. eqns.                    :        0.024 s           0.034 s
  | Grid partitioning                          :        0.057 s           0.061 s
  | Preloading free-atom quantities on grid    :        0.005 s           0.005 s
  | Free-atom superposition energy             :        0.033 s           0.033 s
  | Total energy evaluation                    :        0.000 s           0.001 s
------------------------------------------------------------

------------------------------------------------------------
          Begin self-consistency iteration #    1

  Date     :  20220221, Time     :  151611.271
------------------------------------------------------------
  Evaluating new KS density using the density matrix
  Evaluating density matrix
  Evaluating density matrix
  Time summed over all CPUs for getting density from density matrix: real work       25.682 s, elapsed       26.308 s
  Integration grid: deviation in total charge (<rho> - N_e) =  -2.405867E-06
  | <rho_up-rho_dn> = N_up-N_dn =     -3.0400; <|rho_up-rho_dn|> =      3.0400
  Pulay mixing of updated and previous charge densities.

  Evaluating partitioned Hartree potential by multipole expansion.
  | Analytical far-field extrapolation by fixed multipoles:
  | Hartree multipole sum: apparent total charge =   0.346235E-03
  Summing up the Hartree potential.
  | Estimated reciprocal-space cutoff momentum G_max:         3.32253784 bohr^-1 .
  | Reciprocal lattice points for long-range Hartree potential:     150
  Time summed over all CPUs for potential: real work        2.087 s, elapsed        2.153 s
  | RMS charge density error from multipole expansion :   0.329333E-02
  | Average real-space part of the electrostatic potential :      0.12587146 eV

  Integrating Hamiltonian matrix: batch-based integration.
  Time summed over all CPUs for integration: real work       13.466 s, elapsed       13.657 s

  Updating Kohn-Sham eigenvalues, eigenvectors, occupation numbers, and Fermi level.
  Solving generalized eigenproblem
  Determining occupation numbers for Kohn-Sham eigenstates.
  | Chemical potential (Fermi level) in eV                 : -.65418547E+01
  | Error in electron count due to remaining E_F inaccuracy: 0.88817842E-14
  | Maximum occupation number of highest empty state:  0.00E+00

  Writing Kohn-Sham eigenvalues.

  Spin-up eigenvalues:
  K-point:       1 at    0.000000    0.000000    0.000000 (in units of recip. lattice)

  State    Occupation    Eigenvalue [Ha]    Eigenvalue [eV]
      1       1.00000         -10.059685         -273.73795
      2       1.00000         -10.058714         -273.71153
      3       1.00000          -1.014850          -27.61546
      4       1.00000          -0.560341          -15.24766
      5       1.00000          -0.418483          -11.38751
      6       1.00000          -0.418480          -11.38742
      7       0.00000          -0.011351           -0.30887
      8       0.00000           0.009792            0.26645
      9       0.00000           0.009797            0.26660
     10       0.00000           0.053964            1.46844
     11       0.00000           0.123868            3.37061

  Spin-down eigenvalues:
  K-point:       1 at    0.000000    0.000000    0.000000 (in units of recip. lattice)

  State    Occupation    Eigenvalue [Ha]    Eigenvalue [eV]
      1       1.00000         -10.038641         -273.16532
      2       1.00000         -10.037689         -273.13942
      3       1.00000          -0.923171          -25.12077
      4       1.00000          -0.468154          -12.73913
      5       1.00000          -0.334693           -9.10745
      6       1.00000          -0.334690           -9.10737
      7       0.00000           0.027138            0.73848
      8       0.00000           0.073537            2.00103
      9       0.00000           0.098004            2.66682
     10       0.00000           0.098008            2.66692
     11       0.00000           0.227269            6.18430

  Current spin moment of the entire structure :
  | N = N_up - N_down (sum over all k points):         0.00000
  | S (sum over all k points)                :         0.00000

  What follows are estimated values for band gap, HOMO, LUMO, etc.
  | They are estimated on a discrete k-point grid and not necessarily exact.
  | For converged numbers, create a DOS and/or band structure plot on a denser k-grid.

  Highest occupied state (VBM) at     -6.63147871 eV (relative to internal zero)
  | Occupation number:      1.00000000
  | K-point:       4 at    0.200000    0.400000    0.000000 (in units of recip. lattice)
  | Spin channel:        2

  Lowest unoccupied state (CBM) at    -6.44269056 eV (relative to internal zero)
  | Occupation number:      0.00000000
  | K-point:       8 at    0.400000    0.200000    0.000000 (in units of recip. lattice)
  | Spin channel:        1

  ESTIMATED overall HOMO-LUMO gap:      0.18878814 eV between HOMO at k-point 4 and LUMO at k-point 8
  | This appears to be an indirect band gap.
  | Smallest direct gap :      0.18878994 eV for k_point 8 at    0.400000    0.200000    0.000000 (in units of recip. lattice)
  | Direct gap HOMO spin channel :     2
  | Direct gap LUMO spin channel :     1
  The gap value is rather small. This may be a metal or a small-gap semiconductor.
  Since we use a finite k-point grid, a DOS and/or band structure plot is required
  for an unambiguous assignment.

  Total energy components:
  | Sum of eigenvalues            :         -44.89724986 Ha       -1221.71632889 eV
  | XC energy correction          :         -10.83825620 Ha        -294.92395677 eV
  | XC potential correction       :          13.93259704 Ha         379.12525517 eV
  | Free-atom electrostatic energy:         -33.32004492 Ha        -906.68455390 eV
  | Hartree energy correction     :          -1.04434240 Ha         -28.41800251 eV
  | van der Waals energy corr.    :           0.00000000 Ha           0.00000000 eV
  | Entropy correction            :           0.00000000 Ha           0.00000000 eV
  | ---------------------------
  | Total energy                  :         -76.16729634 Ha       -2072.61758691 eV
  | Total energy, T -> 0          :         -76.16729634 Ha       -2072.61758691 eV  <-- do not rely on this value for anything but (periodic) metals
  | Electronic free energy        :         -76.16729634 Ha       -2072.61758691 eV

  Derived energy quantities:
  | Kinetic energy                :          76.32301658 Ha        2076.85495045 eV
  | Electrostatic energy          :        -141.65205672 Ha       -3854.54858059 eV
  | Energy correction for multipole
  | error in Hartree potential    :          -0.00480720 Ha          -0.13081067 eV
  | Sum of eigenvalues per atom                           :        -610.85816445 eV
  | Total energy (T->0) per atom                          :       -1036.30879346 eV  <-- do not rely on this value for anything but (periodic) metals
  | Electronic free energy per atom                       :       -1036.30879346 eV

  Self-consistency convergence accuracy:
  | Change of charge/spin density : 0.2295E+00 0.4634E+00
  | Change of sum of eigenvalues  : 0.2828E+02 eV
  | Change of total energy        : -.2985E+00 eV

  End self-consistency iteration #     1       :  max(cpu_time)    wall_clock(cpu1)
  | Time for this iteration                    :        5.512 s           5.525 s
  | Charge density update                      :        3.292 s           3.299 s
  | Density mixing & preconditioning           :        0.222 s           0.223 s
  | Hartree multipole update                   :        0.002 s           0.002 s
  | Hartree multipole summation                :        0.274 s           0.274 s
  | Integration                                :        1.710 s           1.714 s
  | Solution of K.-S. eqns.                    :        0.011 s           0.011 s
  | Total energy evaluation                    :        0.000 s           0.001 s
------------------------------------------------------------

------------------------------------------------------------
          Begin self-consistency iteration #    2

  Date     :  20220221, Time     :  151616.799
------------------------------------------------------------
  Evaluating new KS density using the density matrix
  Evaluating density matrix
  Evaluating density matrix
  Time summed over all CPUs for getting density from density matrix: real work       25.590 s, elapsed       26.234 s
  Integration grid: deviation in total charge (<rho> - N_e) =   3.462948E-04
  | <rho_up-rho_dn> = N_up-N_dn =     -2.9436; <|rho_up-rho_dn|> =      2.9436
  Pulay mixing of updated and previous charge densities.

  Evaluating partitioned Hartree potential by multipole expansion.
  | Analytical far-field extrapolation by fixed multipoles:
  | Hartree multipole sum: apparent total charge =   0.468018E-03
  Summing up the Hartree potential.
  Time summed over all CPUs for potential: real work        2.153 s, elapsed        2.224 s
  | RMS charge density error from multipole expansion :   0.807861E-02
  | Average real-space part of the electrostatic potential :      0.26362783 eV

  Integrating Hamiltonian matrix: batch-based integration.
  Time summed over all CPUs for integration: real work       13.450 s, elapsed       13.641 s

  Updating Kohn-Sham eigenvalues, eigenvectors, occupation numbers, and Fermi level.
  Solving generalized eigenproblem
  Determining occupation numbers for Kohn-Sham eigenstates.
  | Chemical potential (Fermi level) in eV                 : -.59879982E+01
  | Error in electron count due to remaining E_F inaccuracy: 0.88817842E-14
  | Maximum occupation number of highest empty state:  0.00E+00

  Current spin moment of the entire structure :
  | N = N_up - N_down (sum over all k points):         0.00000
  | S (sum over all k points)                :         0.00000

  What follows are estimated values for band gap, HOMO, LUMO, etc.
  | They are estimated on a discrete k-point grid and not necessarily exact.
  | For converged numbers, create a DOS and/or band structure plot on a denser k-grid.

  Highest occupied state (VBM) at     -6.43745834 eV (relative to internal zero)
  | Occupation number:      1.00000000
  | K-point:       4 at    0.200000    0.400000    0.000000 (in units of recip. lattice)
  | Spin channel:        2

  Lowest unoccupied state (CBM) at    -4.08488799 eV (relative to internal zero)
  | Occupation number:      0.00000000
  | K-point:       8 at    0.400000    0.200000    0.000000 (in units of recip. lattice)
  | Spin channel:        1

  ESTIMATED overall HOMO-LUMO gap:      2.35257035 eV between HOMO at k-point 4 and LUMO at k-point 8
  | This appears to be an indirect band gap.
  | Smallest direct gap :      2.35258312 eV for k_point 4 at    0.400000    0.200000    0.000000 (in units of recip. lattice)
  | Direct gap HOMO spin channel :     2
  | Direct gap LUMO spin channel :     1
  The gap value is above 0.2 eV. Unless you are using a very sparse k-point grid,
  this system is most likely an insulator or a semiconductor.

  Total energy components:
  | Sum of eigenvalues            :         -43.96550073 Ha       -1196.36214497 eV
  | XC energy correction          :         -10.84961367 Ha        -295.23300933 eV
  | XC potential correction       :          13.94064137 Ha         379.34415243 eV
  | Free-atom electrostatic energy:         -33.32004492 Ha        -906.68455390 eV
  | Hartree energy correction     :          -2.02546917 Ha         -55.11582026 eV
  | van der Waals energy corr.    :           0.00000000 Ha           0.00000000 eV
  | Entropy correction            :           0.00000000 Ha           0.00000000 eV
  | ---------------------------
  | Total energy                  :         -76.21998712 Ha       -2074.05137603 eV
  | Total energy, T -> 0          :         -76.21998712 Ha       -2074.05137603 eV  <-- do not rely on this value for anything but (periodic) metals
  | Electronic free energy        :         -76.21998712 Ha       -2074.05137603 eV

  Derived energy quantities:
  | Kinetic energy                :          76.15096197 Ha        2072.17310631 eV
  | Electrostatic energy          :        -141.52133542 Ha       -3850.99147301 eV
  | Energy correction for multipole
  | error in Hartree potential    :          -0.01126780 Ha          -0.30661246 eV
  | Sum of eigenvalues per atom                           :        -598.18107249 eV
  | Total energy (T->0) per atom                          :       -1037.02568802 eV  <-- do not rely on this value for anything but (periodic) metals
  | Electronic free energy per atom                       :       -1037.02568802 eV

  Self-consistency convergence accuracy:
  | Change of charge/spin density : 0.1238E+00 0.3726E+00
  | Change of sum of eigenvalues  : 0.2535E+02 eV
  | Change of total energy        : -.1434E+01 eV

  End self-consistency iteration #     2       :  max(cpu_time)    wall_clock(cpu1)
  | Time for this iteration                    :        5.485 s           5.498 s
  | Charge density update                      :        3.280 s           3.287 s
  | Density mixing & preconditioning           :        0.200 s           0.202 s
  | Hartree multipole update                   :        0.002 s           0.002 s
  | Hartree multipole summation                :        0.283 s           0.283 s
  | Integration                                :        1.708 s           1.712 s
  | Solution of K.-S. eqns.                    :        0.011 s           0.011 s
  | Total energy evaluation                    :        0.000 s           0.000 s
------------------------------------------------------------

------------------------------------------------------------
          Begin self-consistency iteration #    3

  Date     :  20220221, Time     :  151622.299
------------------------------------------------------------
  Evaluating new KS density using the density matrix
  Evaluating density matrix
  Evaluating density matrix
  Time summed over all CPUs for getting density from density matrix: real work       25.575 s, elapsed       26.224 s
  Integration grid: deviation in total charge (<rho> - N_e) =   4.685869E-04
  | <rho_up-rho_dn> = N_up-N_dn =     -0.6023; <|rho_up-rho_dn|> =      0.6027
  Pulay mixing of updated and previous charge densities.

  Evaluating partitioned Hartree potential by multipole expansion.
  | Analytical far-field extrapolation by fixed multipoles:
  | Hartree multipole sum: apparent total charge =   0.892103E-04
  Summing up the Hartree potential.
  Time summed over all CPUs for potential: real work        2.144 s, elapsed        2.211 s
  | RMS charge density error from multipole expansion :   0.830449E-02
  | Average real-space part of the electrostatic potential :      0.26045178 eV

  Integrating Hamiltonian matrix: batch-based integration.
  Time summed over all CPUs for integration: real work       13.427 s, elapsed       13.636 s

  Updating Kohn-Sham eigenvalues, eigenvectors, occupation numbers, and Fermi level.
  Solving generalized eigenproblem
  Determining occupation numbers for Kohn-Sham eigenstates.
  | Chemical potential (Fermi level) in eV                 : -.60370782E+01
  | Error in electron count due to remaining E_F inaccuracy: 0.88817842E-14
  | Maximum occupation number of highest empty state:  0.00E+00

  Current spin moment of the entire structure :
  | N = N_up - N_down (sum over all k points):         0.00000
  | S (sum over all k points)                :         0.00000

  What follows are estimated values for band gap, HOMO, LUMO, etc.
  | They are estimated on a discrete k-point grid and not necessarily exact.
  | For converged numbers, create a DOS and/or band structure plot on a denser k-grid.

  Highest occupied state (VBM) at     -6.70148238 eV (relative to internal zero)
  | Occupation number:      1.00000000
  | K-point:       8 at    0.400000    0.200000    0.000000 (in units of recip. lattice)
  | Spin channel:        2

  Lowest unoccupied state (CBM) at    -4.10755684 eV (relative to internal zero)
  | Occupation number:      0.00000000
  | K-point:       8 at    0.400000    0.200000    0.000000 (in units of recip. lattice)
  | Spin channel:        1

  ESTIMATED overall HOMO-LUMO gap:      2.59392553 eV between HOMO at k-point 8 and LUMO at k-point 8
  | This appears to be a direct band gap.
  The gap value is above 0.2 eV. Unless you are using a very sparse k-point grid,
  this system is most likely an insulator or a semiconductor.

  Total energy components:
  | Sum of eigenvalues            :         -44.08725645 Ha       -1199.67528682 eV
  | XC energy correction          :         -10.83289371 Ha        -294.77803598 eV
  | XC potential correction       :          13.91814841 Ha         378.73208804 eV
  | Free-atom electrostatic energy:         -33.32004492 Ha        -906.68455390 eV
  | Hartree energy correction     :          -1.90099010 Ha         -51.72857259 eV
  | van der Waals energy corr.    :           0.00000000 Ha           0.00000000 eV
  | Entropy correction            :           0.00000000 Ha           0.00000000 eV
  | ---------------------------
  | Total energy                  :         -76.22303677 Ha       -2074.13436125 eV
  | Total energy, T -> 0          :         -76.22303677 Ha       -2074.13436125 eV  <-- do not rely on this value for anything but (periodic) metals
  | Electronic free energy        :         -76.22303677 Ha       -2074.13436125 eV

  Derived energy quantities:
  | Kinetic energy                :          76.04551643 Ha        2069.30378719 eV
  | Electrostatic energy          :        -141.43565949 Ha       -3848.66011246 eV
  | Energy correction for multipole
  | error in Hartree potential    :          -0.01155403 Ha          -0.31440108 eV
  | Sum of eigenvalues per atom                           :        -599.83764341 eV
  | Total energy (T->0) per atom                          :       -1037.06718062 eV  <-- do not rely on this value for anything but (periodic) metals
  | Electronic free energy per atom                       :       -1037.06718062 eV

  Self-consistency convergence accuracy:
  | Change of charge/spin density : 0.3029E-01 0.6914E-01
  | Change of sum of eigenvalues  : -.3313E+01 eV
  | Change of total energy        : -.8299E-01 eV

  End self-consistency iteration #     3       :  max(cpu_time)    wall_clock(cpu1)
  | Time for this iteration                    :        5.474 s           5.487 s
  | Charge density update                      :        3.278 s           3.286 s
  | Density mixing & preconditioning           :        0.197 s           0.198 s
  | Hartree multipole update                   :        0.001 s           0.001 s
  | Hartree multipole summation                :        0.280 s           0.281 s
  | Integration                                :        1.705 s           1.709 s
  | Solution of K.-S. eqns.                    :        0.010 s           0.011 s
  | Total energy evaluation                    :        0.000 s           0.001 s
------------------------------------------------------------

------------------------------------------------------------
          Begin self-consistency iteration #    4

  Date     :  20220221, Time     :  151627.789
------------------------------------------------------------
  Evaluating new KS density using the density matrix
  Evaluating density matrix
  Evaluating density matrix
  Time summed over all CPUs for getting density from density matrix: real work       25.643 s, elapsed       26.286 s
  Integration grid: deviation in total charge (<rho> - N_e) =   8.978557E-05
  | <rho_up-rho_dn> = N_up-N_dn =     -0.2953; <|rho_up-rho_dn|> =      0.2976
  Pulay mixing of updated and previous charge densities.

  Evaluating partitioned Hartree potential by multipole expansion.
  | Analytical far-field extrapolation by fixed multipoles:
  | Hartree multipole sum: apparent total charge =  -0.737867E-04
  Summing up the Hartree potential.
  Time summed over all CPUs for potential: real work        2.140 s, elapsed        2.207 s
  | RMS charge density error from multipole expansion :   0.825895E-02
  | Average real-space part of the electrostatic potential :      0.24882994 eV

  Integrating Hamiltonian matrix: batch-based integration.
  Time summed over all CPUs for integration: real work       13.203 s, elapsed       13.381 s

  Updating Kohn-Sham eigenvalues, eigenvectors, occupation numbers, and Fermi level.
  Solving generalized eigenproblem
  Determining occupation numbers for Kohn-Sham eigenstates.
  | Chemical potential (Fermi level) in eV                 : -.61520243E+01
  | Error in electron count due to remaining E_F inaccuracy: 0.88817842E-14
  | Maximum occupation number of highest empty state:  0.00E+00

  Current spin moment of the entire structure :
  | N = N_up - N_down (sum over all k points):         0.00000
  | S (sum over all k points)                :         0.00000

  What follows are estimated values for band gap, HOMO, LUMO, etc.
  | They are estimated on a discrete k-point grid and not necessarily exact.
  | For converged numbers, create a DOS and/or band structure plot on a denser k-grid.

  Highest occupied state (VBM) at     -6.99408121 eV (relative to internal zero)
  | Occupation number:      1.00000000
  | K-point:       8 at    0.400000    0.200000    0.000000 (in units of recip. lattice)
  | Spin channel:        2

  Lowest unoccupied state (CBM) at    -4.20640816 eV (relative to internal zero)
  | Occupation number:      0.00000000
  | K-point:       8 at    0.400000    0.200000    0.000000 (in units of recip. lattice)
  | Spin channel:        1

  ESTIMATED overall HOMO-LUMO gap:      2.78767305 eV between HOMO at k-point 8 and LUMO at k-point 8
  | This appears to be a direct band gap.
  The gap value is above 0.2 eV. Unless you are using a very sparse k-point grid,
  this system is most likely an insulator or a semiconductor.

  Total energy components:
  | Sum of eigenvalues            :         -44.24341926 Ha       -1203.92469309 eV
  | XC energy correction          :         -10.81624250 Ha        -294.32493349 eV
  | XC potential correction       :          13.89657817 Ha         378.14513189 eV
  | Free-atom electrostatic energy:         -33.32004492 Ha        -906.68455390 eV
  | Hartree energy correction     :          -1.74121079 Ha         -47.38075637 eV
  | van der Waals energy corr.    :           0.00000000 Ha           0.00000000 eV
  | Entropy correction            :           0.00000000 Ha           0.00000000 eV
  | ---------------------------
  | Total energy                  :         -76.22433930 Ha       -2074.16980496 eV
  | Total energy, T -> 0          :         -76.22433930 Ha       -2074.16980496 eV  <-- do not rely on this value for anything but (periodic) metals
  | Electronic free energy        :         -76.22433930 Ha       -2074.16980496 eV

  Derived energy quantities:
  | Kinetic energy                :          75.96202744 Ha        2067.03193613 eV
  | Electrostatic energy          :        -141.37012424 Ha       -3846.87680760 eV
  | Energy correction for multipole
  | error in Hartree potential    :          -0.01153987 Ha          -0.31401582 eV
  | Sum of eigenvalues per atom                           :        -601.96234654 eV
  | Total energy (T->0) per atom                          :       -1037.08490248 eV  <-- do not rely on this value for anything but (periodic) metals
  | Electronic free energy per atom                       :       -1037.08490248 eV

  Self-consistency convergence accuracy:
  | Change of charge/spin density : 0.1880E-01 0.3463E-01
  | Change of sum of eigenvalues  : -.4249E+01 eV
  | Change of total energy        : -.3544E-01 eV

  End self-consistency iteration #     4       :  max(cpu_time)    wall_clock(cpu1)
  | Time for this iteration                    :        5.450 s           5.461 s
  | Charge density update                      :        3.287 s           3.293 s
  | Density mixing & preconditioning           :        0.195 s           0.195 s
  | Hartree multipole update                   :        0.002 s           0.002 s
  | Hartree multipole summation                :        0.280 s           0.281 s
  | Integration                                :        1.673 s           1.677 s
  | Solution of K.-S. eqns.                    :        0.011 s           0.011 s
  | Total energy evaluation                    :        0.000 s           0.000 s
------------------------------------------------------------

------------------------------------------------------------
          Begin self-consistency iteration #    5

  Date     :  20220221, Time     :  151633.252
------------------------------------------------------------
  Evaluating new KS density using the density matrix
  Evaluating density matrix
  Evaluating density matrix
  Time summed over all CPUs for getting density from density matrix: real work       25.589 s, elapsed       26.250 s
  Integration grid: deviation in total charge (<rho> - N_e) =  -7.323357E-05
  | <rho_up-rho_dn> = N_up-N_dn =     -0.0388; <|rho_up-rho_dn|> =      0.0471
  Pulay mixing of updated and previous charge densities.

  Evaluating partitioned Hartree potential by multipole expansion.
  | Analytical far-field extrapolation by fixed multipoles:
  | Hartree multipole sum: apparent total charge =  -0.363956E-04
  Summing up the Hartree potential.
  Time summed over all CPUs for potential: real work        2.146 s, elapsed        2.213 s
  | RMS charge density error from multipole expansion :   0.817398E-02
  | Average real-space part of the electrostatic potential :      0.24708491 eV

  Integrating Hamiltonian matrix: batch-based integration.
  Time summed over all CPUs for integration: real work       13.497 s, elapsed       13.704 s

  Updating Kohn-Sham eigenvalues, eigenvectors, occupation numbers, and Fermi level.
  Solving generalized eigenproblem
  Determining occupation numbers for Kohn-Sham eigenstates.
  | Chemical potential (Fermi level) in eV                 : -.61572584E+01
  | Error in electron count due to remaining E_F inaccuracy: 0.88817842E-14
  | Maximum occupation number of highest empty state:  0.00E+00

  Current spin moment of the entire structure :
  | N = N_up - N_down (sum over all k points):         0.00000
  | S (sum over all k points)                :         0.00000

  What follows are estimated values for band gap, HOMO, LUMO, etc.
  | They are estimated on a discrete k-point grid and not necessarily exact.
  | For converged numbers, create a DOS and/or band structure plot on a denser k-grid.

  Highest occupied state (VBM) at     -6.97941372 eV (relative to internal zero)
  | Occupation number:      1.00000000
  | K-point:       8 at    0.400000    0.200000    0.000000 (in units of recip. lattice)
  | Spin channel:        2

  Lowest unoccupied state (CBM) at    -4.16549469 eV (relative to internal zero)
  | Occupation number:      0.00000000
  | K-point:       8 at    0.400000    0.200000    0.000000 (in units of recip. lattice)
  | Spin channel:        1

  ESTIMATED overall HOMO-LUMO gap:      2.81391903 eV between HOMO at k-point 8 and LUMO at k-point 8
  | This appears to be a direct band gap.
  The gap value is above 0.2 eV. Unless you are using a very sparse k-point grid,
  this system is most likely an insulator or a semiconductor.

  Total energy components:
  | Sum of eigenvalues            :         -44.22517942 Ha       -1203.42836190 eV
  | XC energy correction          :         -10.81814098 Ha        -294.37659368 eV
  | XC potential correction       :          13.89895552 Ha         378.20982269 eV
  | Free-atom electrostatic energy:         -33.32004492 Ha        -906.68455390 eV
  | Hartree energy correction     :          -1.75995487 Ha         -47.89080879 eV
  | van der Waals energy corr.    :           0.00000000 Ha           0.00000000 eV
  | Entropy correction            :           0.00000000 Ha           0.00000000 eV
  | ---------------------------
  | Total energy                  :         -76.22436468 Ha       -2074.17049559 eV
  | Total energy, T -> 0          :         -76.22436468 Ha       -2074.17049559 eV  <-- do not rely on this value for anything but (periodic) metals
  | Electronic free energy        :         -76.22436468 Ha       -2074.17049559 eV

  Derived energy quantities:
  | Kinetic energy                :          75.98503217 Ha        2067.65792653 eV
  | Electrostatic energy          :        -141.39125587 Ha       -3847.45182844 eV
  | Energy correction for multipole
  | error in Hartree potential    :          -0.01147163 Ha          -0.31215881 eV
  | Sum of eigenvalues per atom                           :        -601.71418095 eV
  | Total energy (T->0) per atom                          :       -1037.08524779 eV  <-- do not rely on this value for anything but (periodic) metals
  | Electronic free energy per atom                       :       -1037.08524779 eV

  Self-consistency convergence accuracy:
  | Change of charge/spin density : 0.3148E-02 0.5527E-02
  | Change of sum of eigenvalues  : 0.4963E+00 eV
  | Change of total energy        : -.6906E-03 eV

  End self-consistency iteration #     5       :  max(cpu_time)    wall_clock(cpu1)
  | Time for this iteration                    :        5.482 s           5.495 s
  | Charge density update                      :        3.281 s           3.288 s
  | Density mixing & preconditioning           :        0.194 s           0.195 s
  | Hartree multipole update                   :        0.001 s           0.001 s
  | Hartree multipole summation                :        0.281 s           0.282 s
  | Integration                                :        1.713 s           1.717 s
  | Solution of K.-S. eqns.                    :        0.010 s           0.010 s
  | Total energy evaluation                    :        0.000 s           0.001 s
------------------------------------------------------------

------------------------------------------------------------
          Begin self-consistency iteration #    6

  Date     :  20220221, Time     :  151638.749
------------------------------------------------------------
  Evaluating new KS density using the density matrix
  Evaluating density matrix
  Evaluating density matrix
  Time summed over all CPUs for getting density from density matrix: real work       25.692 s, elapsed       26.351 s
  Integration grid: deviation in total charge (<rho> - N_e) =  -3.585023E-05
  | <rho_up-rho_dn> = N_up-N_dn =     -0.0066; <|rho_up-rho_dn|> =      0.0067
  Pulay mixing of updated and previous charge densities.

  Evaluating partitioned Hartree potential by multipole expansion.
  | Analytical far-field extrapolation by fixed multipoles:
  | Hartree multipole sum: apparent total charge =  -0.102245E-04
  Summing up the Hartree potential.
  Time summed over all CPUs for potential: real work        2.146 s, elapsed        2.214 s
  | RMS charge density error from multipole expansion :   0.817348E-02
  | Average real-space part of the electrostatic potential :      0.24759412 eV

  Integrating Hamiltonian matrix: batch-based integration.
  Time summed over all CPUs for integration: real work       13.018 s, elapsed       13.193 s

  Updating Kohn-Sham eigenvalues, eigenvectors, occupation numbers, and Fermi level.
  Solving generalized eigenproblem
  Determining occupation numbers for Kohn-Sham eigenstates.
  | Chemical potential (Fermi level) in eV                 : -.61546146E+01
  | Error in electron count due to remaining E_F inaccuracy: 0.88817842E-14
  | Maximum occupation number of highest empty state:  0.00E+00

  Current spin moment of the entire structure :
  | N = N_up - N_down (sum over all k points):         0.00000
  | S (sum over all k points)                :         0.00000

  What follows are estimated values for band gap, HOMO, LUMO, etc.
  | They are estimated on a discrete k-point grid and not necessarily exact.
  | For converged numbers, create a DOS and/or band structure plot on a denser k-grid.

  Highest occupied state (VBM) at     -6.96643600 eV (relative to internal zero)
  | Occupation number:      1.00000000
  | K-point:       8 at    0.400000    0.200000    0.000000 (in units of recip. lattice)
  | Spin channel:        1

  Lowest unoccupied state (CBM) at    -4.14720916 eV (relative to internal zero)
  | Occupation number:      0.00000000
  | K-point:       8 at    0.400000    0.200000    0.000000 (in units of recip. lattice)
  | Spin channel:        2

  ESTIMATED overall HOMO-LUMO gap:      2.81922684 eV between HOMO at k-point 8 and LUMO at k-point 8
  | This appears to be a direct band gap.
  The gap value is above 0.2 eV. Unless you are using a very sparse k-point grid,
  this system is most likely an insulator or a semiconductor.

  Total energy components:
  | Sum of eigenvalues            :         -44.21389179 Ha       -1203.12120976 eV
  | XC energy correction          :         -10.81920227 Ha        -294.40547305 eV
  | XC potential correction       :          13.90030519 Ha         378.24654913 eV
  | Free-atom electrostatic energy:         -33.32004492 Ha        -906.68455390 eV
  | Hartree energy correction     :          -1.77152923 Ha         -48.20576311 eV
  | van der Waals energy corr.    :           0.00000000 Ha           0.00000000 eV
  | Entropy correction            :           0.00000000 Ha           0.00000000 eV
  | ---------------------------
  | Total energy                  :         -76.22436303 Ha       -2074.17045070 eV
  | Total energy, T -> 0          :         -76.22436303 Ha       -2074.17045070 eV  <-- do not rely on this value for anything but (periodic) metals
  | Electronic free energy        :         -76.22436303 Ha       -2074.17045070 eV

  Derived energy quantities:
  | Kinetic energy                :          75.99156340 Ha        2067.83565033 eV
  | Electrostatic energy          :        -141.39672415 Ha       -3847.60062798 eV
  | Energy correction for multipole
  | error in Hartree potential    :          -0.01148000 Ha          -0.31238659 eV
  | Sum of eigenvalues per atom                           :        -601.56060488 eV
  | Total energy (T->0) per atom                          :       -1037.08522535 eV  <-- do not rely on this value for anything but (periodic) metals
  | Electronic free energy per atom                       :       -1037.08522535 eV

  Self-consistency convergence accuracy:
  | Change of charge/spin density : 0.1045E-02 0.6878E-03
  | Change of sum of eigenvalues  : 0.3072E+00 eV
  | Change of total energy        : 0.4489E-04 eV

  End self-consistency iteration #     6       :  max(cpu_time)    wall_clock(cpu1)
  | Time for this iteration                    :        5.433 s           5.445 s
  | Charge density update                      :        3.294 s           3.300 s
  | Density mixing & preconditioning           :        0.193 s           0.194 s
  | Hartree multipole update                   :        0.002 s           0.002 s
  | Hartree multipole summation                :        0.281 s           0.281 s
  | Integration                                :        1.651 s           1.655 s
  | Solution of K.-S. eqns.                    :        0.011 s           0.011 s
  | Total energy evaluation                    :        0.000 s           0.001 s
------------------------------------------------------------

------------------------------------------------------------
          Begin self-consistency iteration #    7

  Date     :  20220221, Time     :  151644.199
------------------------------------------------------------
  Evaluating new KS density using the density matrix
  Evaluating density matrix
  Evaluating density matrix
  Time summed over all CPUs for getting density from density matrix: real work       25.532 s, elapsed       26.191 s
  Integration grid: deviation in total charge (<rho> - N_e) =  -9.677980E-06
  | <rho_up-rho_dn> = N_up-N_dn =     -0.0000; <|rho_up-rho_dn|> =      0.0022
  Pulay mixing of updated and previous charge densities.

  Evaluating partitioned Hartree potential by multipole expansion.
  | Analytical far-field extrapolation by fixed multipoles:
  | Hartree multipole sum: apparent total charge =  -0.926719E-05
  Summing up the Hartree potential.
  Time summed over all CPUs for potential: real work        2.147 s, elapsed        2.214 s
  | RMS charge density error from multipole expansion :   0.817303E-02
  | Average real-space part of the electrostatic potential :      0.24759141 eV

  Integrating Hamiltonian matrix: batch-based integration.
  Time summed over all CPUs for integration: real work       13.498 s, elapsed       13.716 s

  Updating Kohn-Sham eigenvalues, eigenvectors, occupation numbers, and Fermi level.
  Solving generalized eigenproblem
  Determining occupation numbers for Kohn-Sham eigenstates.
  | Chemical potential (Fermi level) in eV                 : -.61546871E+01
  | Error in electron count due to remaining E_F inaccuracy: 0.88817842E-14
  | Maximum occupation number of highest empty state:  0.00E+00

  Current spin moment of the entire structure :
  | N = N_up - N_down (sum over all k points):         0.00000
  | S (sum over all k points)                :         0.00000

  What follows are estimated values for band gap, HOMO, LUMO, etc.
  | They are estimated on a discrete k-point grid and not necessarily exact.
  | For converged numbers, create a DOS and/or band structure plot on a denser k-grid.

  Highest occupied state (VBM) at     -6.96635571 eV (relative to internal zero)
  | Occupation number:      1.00000000
  | K-point:       8 at    0.400000    0.200000    0.000000 (in units of recip. lattice)
  | Spin channel:        1

  Lowest unoccupied state (CBM) at    -4.14713428 eV (relative to internal zero)
  | Occupation number:      0.00000000
  | K-point:       8 at    0.400000    0.200000    0.000000 (in units of recip. lattice)
  | Spin channel:        2

  ESTIMATED overall HOMO-LUMO gap:      2.81922143 eV between HOMO at k-point 8 and LUMO at k-point 8
  | This appears to be a direct band gap.
  The gap value is above 0.2 eV. Unless you are using a very sparse k-point grid,
  this system is most likely an insulator or a semiconductor.

  Total energy components:
  | Sum of eigenvalues            :         -44.21382042 Ha       -1203.11926777 eV
  | XC energy correction          :         -10.81920984 Ha        -294.40567902 eV
  | XC potential correction       :          13.90031484 Ha         378.24681178 eV
  | Free-atom electrostatic energy:         -33.32004492 Ha        -906.68455390 eV
  | Hartree energy correction     :          -1.77160317 Ha         -48.20777492 eV
  | van der Waals energy corr.    :           0.00000000 Ha           0.00000000 eV
  | Entropy correction            :           0.00000000 Ha           0.00000000 eV
  | ---------------------------
  | Total energy                  :         -76.22436351 Ha       -2074.17046383 eV
  | Total energy, T -> 0          :         -76.22436351 Ha       -2074.17046383 eV  <-- do not rely on this value for anything but (periodic) metals
  | Electronic free energy        :         -76.22436351 Ha       -2074.17046383 eV

  Derived energy quantities:
  | Kinetic energy                :          75.99165294 Ha        2067.83808689 eV
  | Electrostatic energy          :        -141.39680661 Ha       -3847.60287170 eV
  | Energy correction for multipole
  | error in Hartree potential    :          -0.01147964 Ha          -0.31237694 eV
  | Sum of eigenvalues per atom                           :        -601.55963388 eV
  | Total energy (T->0) per atom                          :       -1037.08523191 eV  <-- do not rely on this value for anything but (periodic) metals
  | Electronic free energy per atom                       :       -1037.08523191 eV

  Self-consistency convergence accuracy:
  | Change of charge/spin density : 0.1162E-02 0.2476E-03
  | Change of sum of eigenvalues  : 0.1942E-02 eV
  | Change of total energy        : -.1313E-04 eV

  End self-consistency iteration #     7       :  max(cpu_time)    wall_clock(cpu1)
  | Time for this iteration                    :        5.475 s           5.487 s
  | Charge density update                      :        3.274 s           3.281 s
  | Density mixing & preconditioning           :        0.192 s           0.192 s
  | Hartree multipole update                   :        0.001 s           0.002 s
  | Hartree multipole summation                :        0.281 s           0.281 s
  | Integration                                :        1.715 s           1.719 s
  | Solution of K.-S. eqns.                    :        0.010 s           0.010 s
  | Total energy evaluation                    :        0.000 s           0.001 s
------------------------------------------------------------

------------------------------------------------------------
          Begin self-consistency iteration #    8

  Date     :  20220221, Time     :  151649.689
------------------------------------------------------------
  Evaluating new KS density using the density matrix
  Evaluating density matrix
  Evaluating density matrix
  Time summed over all CPUs for getting density from density matrix: real work       25.670 s, elapsed       26.330 s
  Integration grid: deviation in total charge (<rho> - N_e) =  -8.720679E-06
  | <rho_up-rho_dn> = N_up-N_dn =      0.0000; <|rho_up-rho_dn|> =      0.0021
  Pulay mixing of updated and previous charge densities.

  Evaluating partitioned Hartree potential by multipole expansion.
  | Analytical far-field extrapolation by fixed multipoles:
  | Hartree multipole sum: apparent total charge =   0.439480E-05
  Summing up the Hartree potential.
  Time summed over all CPUs for potential: real work        2.145 s, elapsed        2.213 s
  | RMS charge density error from multipole expansion :   0.816511E-02
  | Average real-space part of the electrostatic potential :      0.24753794 eV

  Integrating Hamiltonian matrix: batch-based integration.
  Time summed over all CPUs for integration: real work       13.504 s, elapsed       13.725 s

  Updating Kohn-Sham eigenvalues, eigenvectors, occupation numbers, and Fermi level.
  Solving generalized eigenproblem
  Determining occupation numbers for Kohn-Sham eigenstates.
  | Chemical potential (Fermi level) in eV                 : -.60183061E+01
  | Error in electron count due to remaining E_F inaccuracy: 0.88817842E-14
  | Maximum occupation number of highest empty state:  0.00E+00

  Current spin moment of the entire structure :
  | N = N_up - N_down (sum over all k points):         0.00000
  | S (sum over all k points)                :         0.00000

  What follows are estimated values for band gap, HOMO, LUMO, etc.
  | They are estimated on a discrete k-point grid and not necessarily exact.
  | For converged numbers, create a DOS and/or band structure plot on a denser k-grid.

  Highest occupied state (VBM) at     -6.96518782 eV (relative to internal zero)
  | Occupation number:      1.00000000
  | K-point:       8 at    0.400000    0.200000    0.000000 (in units of recip. lattice)
  | Spin channel:        1

  Lowest unoccupied state (CBM) at    -4.14563690 eV (relative to internal zero)
  | Occupation number:      0.00000000
  | K-point:       8 at    0.400000    0.200000    0.000000 (in units of recip. lattice)
  | Spin channel:        2

  ESTIMATED overall HOMO-LUMO gap:      2.81955092 eV between HOMO at k-point 8 and LUMO at k-point 8
  | This appears to be a direct band gap.
  The gap value is above 0.2 eV. Unless you are using a very sparse k-point grid,
  this system is most likely an insulator or a semiconductor.

  Total energy components:
  | Sum of eigenvalues            :         -44.21281239 Ha       -1203.09183781 eV
  | XC energy correction          :         -10.81931921 Ha        -294.40865513 eV
  | XC potential correction       :          13.90045465 Ha         378.25061626 eV
  | Free-atom electrostatic energy:         -33.32004492 Ha        -906.68455390 eV
  | Hartree energy correction     :          -1.77264076 Ha         -48.23600932 eV
  | van der Waals energy corr.    :           0.00000000 Ha           0.00000000 eV
  | Entropy correction            :           0.00000000 Ha           0.00000000 eV
  | ---------------------------
  | Total energy                  :         -76.22436263 Ha       -2074.17043990 eV
  | Total energy, T -> 0          :         -76.22436263 Ha       -2074.17043990 eV  <-- do not rely on this value for anything but (periodic) metals
  | Electronic free energy        :         -76.22436263 Ha       -2074.17043990 eV

  Derived energy quantities:
  | Kinetic energy                :          75.99309034 Ha        2067.87720070 eV
  | Electrostatic energy          :        -141.39813377 Ha       -3847.63898547 eV
  | Energy correction for multipole
  | error in Hartree potential    :          -0.01147297 Ha          -0.31219537 eV
  | Sum of eigenvalues per atom                           :        -601.54591890 eV
  | Total energy (T->0) per atom                          :       -1037.08521995 eV  <-- do not rely on this value for anything but (periodic) metals
  | Electronic free energy per atom                       :       -1037.08521995 eV

  Self-consistency convergence accuracy:
  | Change of charge/spin density : 0.2873E-02 0.2359E-03
  | Change of sum of eigenvalues  : 0.2743E-01 eV
  | Change of total energy        : 0.2393E-04 eV

  End self-consistency iteration #     8       :  max(cpu_time)    wall_clock(cpu1)
  | Time for this iteration                    :        5.491 s           5.503 s
  | Charge density update                      :        3.291 s           3.298 s
  | Density mixing & preconditioning           :        0.190 s           0.190 s
  | Hartree multipole update                   :        0.001 s           0.002 s
  | Hartree multipole summation                :        0.281 s           0.281 s
  | Integration                                :        1.716 s           1.720 s
  | Solution of K.-S. eqns.                    :        0.010 s           0.011 s
  | Total energy evaluation                    :        0.000 s           0.001 s
------------------------------------------------------------

------------------------------------------------------------
          Begin self-consistency iteration #    9

  Date     :  20220221, Time     :  151655.198
------------------------------------------------------------
  Evaluating new KS density using the density matrix
  Evaluating density matrix
  Evaluating density matrix
  Time summed over all CPUs for getting density from density matrix: real work       25.639 s, elapsed       26.309 s
  Integration grid: deviation in total charge (<rho> - N_e) =   4.941017E-06
  | <rho_up-rho_dn> = N_up-N_dn =      0.0001; <|rho_up-rho_dn|> =      0.0002
  Pulay mixing of updated and previous charge densities.

  Evaluating partitioned Hartree potential by multipole expansion.
  | Analytical far-field extrapolation by fixed multipoles:
  | Hartree multipole sum: apparent total charge =   0.196347E-05
  Summing up the Hartree potential.
  Time summed over all CPUs for potential: real work        2.148 s, elapsed        2.215 s
  | RMS charge density error from multipole expansion :   0.816422E-02
  | Average real-space part of the electrostatic potential :      0.24754566 eV

  Integrating Hamiltonian matrix: batch-based integration.
  Time summed over all CPUs for integration: real work       13.504 s, elapsed       13.697 s

  Updating Kohn-Sham eigenvalues, eigenvectors, occupation numbers, and Fermi level.
  Solving generalized eigenproblem
  Determining occupation numbers for Kohn-Sham eigenstates.
  | Chemical potential (Fermi level) in eV                 : -.69603744E+01
  | Error in electron count due to remaining E_F inaccuracy: 0.35527137E-14
  | Maximum occupation number of highest empty state:  0.00E+00

  Current spin moment of the entire structure :
  | N = N_up - N_down (sum over all k points):         0.00000
[...]
  | Occupation number:      0.00000000
  | K-point:       8 at    0.400000    0.200000    0.000000 (in units of recip. lattice)
  | Spin channel:        2

  ESTIMATED overall HOMO-LUMO gap:      2.81970822 eV between HOMO at k-point 8 and LUMO at k-point 8
  | This appears to be a direct band gap.
  The gap value is above 0.2 eV. Unless you are using a very sparse k-point grid,
  this system is most likely an insulator or a semiconductor.

  Total energy components:
  | Sum of eigenvalues            :         -44.21307380 Ha       -1203.09895100 eV
  | XC energy correction          :         -10.81929082 Ha        -294.40788258 eV
  | XC potential correction       :          13.90042066 Ha         378.24969127 eV
  | Free-atom electrostatic energy:         -33.32004492 Ha        -906.68455390 eV
  | Hartree energy correction     :          -1.77237367 Ha         -48.22874136 eV
  | van der Waals energy corr.    :           0.00000000 Ha           0.00000000 eV
  | Entropy correction            :          -0.00000000 Ha          -0.00000000 eV
  | ---------------------------
  | Total energy                  :         -76.22436255 Ha       -2074.17043757 eV
  | Total energy, T -> 0          :         -76.22436255 Ha       -2074.17043757 eV  <-- do not rely on this value for anything but (periodic) metals
  | Electronic free energy        :         -76.22436255 Ha       -2074.17043757 eV

  Derived energy quantities:
  | Kinetic energy                :          75.99291724 Ha        2067.87249032 eV
  | Electrostatic energy          :        -141.39798897 Ha       -3847.63504531 eV
  | Energy correction for multipole
  | error in Hartree potential    :          -0.01147159 Ha          -0.31215798 eV
  | Sum of eigenvalues per atom                           :        -601.54947550 eV
  | Total energy (T->0) per atom                          :       -1037.08521879 eV  <-- do not rely on this value for anything but (periodic) metals
  | Electronic free energy per atom                       :       -1037.08521879 eV

  Self-consistency convergence accuracy:
  | Change of charge/spin density : 0.3347E-06 0.1251E-06
  | Change of sum of eigenvalues  : -.1450E-04 eV
  | Change of total energy        : 0.8654E-08 eV

  End self-consistency iteration #    13       :  max(cpu_time)    wall_clock(cpu1)
  | Time for this iteration                    :        5.354 s           5.366 s
  | Charge density update                      :        3.229 s           3.237 s
  | Density mixing & preconditioning           :        0.189 s           0.189 s
  | Hartree multipole update                   :        0.001 s           0.002 s
  | Hartree multipole summation                :        0.279 s           0.280 s
  | Integration                                :        1.643 s           1.647 s
  | Solution of K.-S. eqns.                    :        0.010 s           0.010 s
  | Total energy evaluation                    :        0.000 s           0.000 s
------------------------------------------------------------

------------------------------------------------------------
          Begin self-consistency iteration #   14

  Date     :  20220221, Time     :  151722.439
------------------------------------------------------------
  Evaluating new KS density using the density matrix
  Evaluating density matrix
  Evaluating density matrix
  Time summed over all CPUs for getting density from density matrix: real work       25.205 s, elapsed       25.811 s
  Integration grid: deviation in total charge (<rho> - N_e) =   1.806858E-07
  | <rho_up-rho_dn> = N_up-N_dn =      0.0000; <|rho_up-rho_dn|> =      0.0000
  Pulay mixing of updated and previous charge densities.

  Evaluating partitioned Hartree potential by multipole expansion.
  | Analytical far-field extrapolation by fixed multipoles:
  | Hartree multipole sum: apparent total charge =  -0.476664E-06
  Summing up the Hartree potential.
  Time summed over all CPUs for potential: real work        2.137 s, elapsed        2.204 s
  | RMS charge density error from multipole expansion :   0.816381E-02
  | Average real-space part of the electrostatic potential :      0.24755539 eV

  Integrating Hamiltonian matrix: batch-based integration.
  Time summed over all CPUs for integration: real work       12.782 s, elapsed       12.947 s

  Updating Kohn-Sham eigenvalues, eigenvectors, occupation numbers, and Fermi level.
  Solving generalized eigenproblem
  Determining occupation numbers for Kohn-Sham eigenstates.
  | Chemical potential (Fermi level) in eV                 : -.69460376E+01
  | Error in electron count due to remaining E_F inaccuracy: 0.88817842E-14
  | Maximum occupation number of highest empty state:  0.00E+00

  Current spin moment of the entire structure :
  | N = N_up - N_down (sum over all k points):         0.00000
  | S (sum over all k points)                :         0.00000

  What follows are estimated values for band gap, HOMO, LUMO, etc.
  | They are estimated on a discrete k-point grid and not necessarily exact.
  | For converged numbers, create a DOS and/or band structure plot on a denser k-grid.

  Highest occupied state (VBM) at     -6.96568992 eV (relative to internal zero)
  | Occupation number:      1.00000000
  | K-point:       8 at    0.400000    0.200000    0.000000 (in units of recip. lattice)
  | Spin channel:        1

  Lowest unoccupied state (CBM) at    -4.14598167 eV (relative to internal zero)
  | Occupation number:      0.00000000
  | K-point:       8 at    0.400000    0.200000    0.000000 (in units of recip. lattice)
  | Spin channel:        2

  ESTIMATED overall HOMO-LUMO gap:      2.81970826 eV between HOMO at k-point 8 and LUMO at k-point 8
  | This appears to be a direct band gap.
  The gap value is above 0.2 eV. Unless you are using a very sparse k-point grid,
  this system is most likely an insulator or a semiconductor.

  Total energy components:
  | Sum of eigenvalues            :         -44.21307372 Ha       -1203.09894895 eV
  | XC energy correction          :         -10.81929078 Ha        -294.40788154 eV
  | XC potential correction       :          13.90042062 Ha         378.24969023 eV
  | Free-atom electrostatic energy:         -33.32004492 Ha        -906.68455390 eV
  | Hartree energy correction     :          -1.77237374 Ha         -48.22874340 eV
  | van der Waals energy corr.    :           0.00000000 Ha           0.00000000 eV
  | Entropy correction            :          -0.00000000 Ha          -0.00000000 eV
  | ---------------------------
  | Total energy                  :         -76.22436255 Ha       -2074.17043756 eV
  | Total energy, T -> 0          :         -76.22436255 Ha       -2074.17043756 eV  <-- do not rely on this value for anything but (periodic) metals
  | Electronic free energy        :         -76.22436255 Ha       -2074.17043756 eV

  Derived energy quantities:
  | Kinetic energy                :          75.99291704 Ha        2067.87248486 eV
  | Electrostatic energy          :        -141.39798880 Ha       -3847.63504089 eV
  | Energy correction for multipole
  | error in Hartree potential    :          -0.01147158 Ha          -0.31215761 eV
  | Sum of eigenvalues per atom                           :        -601.54947448 eV
  | Total energy (T->0) per atom                          :       -1037.08521878 eV  <-- do not rely on this value for anything but (periodic) metals
  | Electronic free energy per atom                       :       -1037.08521878 eV

  Self-consistency convergence accuracy:
  | Change of charge/spin density : 0.1695E-06 0.1396E-06
  | Change of sum of eigenvalues  : 0.2050E-05 eV
  | Change of total energy        : 0.6809E-08 eV

  Preliminary charge convergence reached. Turning off preconditioner.

  Writing Kohn-Sham eigenvalues.

  Spin-up eigenvalues:
  K-point:       1 at    0.000000    0.000000    0.000000 (in units of recip. lattice)

  State    Occupation    Eigenvalue [Ha]    Eigenvalue [eV]
      1       1.00000          -9.978399         -271.52605
      2       1.00000          -9.977436         -271.49986
      3       1.00000          -0.920095          -25.03707
      4       1.00000          -0.482236          -13.12230
      5       1.00000          -0.312749           -8.51033
      6       1.00000          -0.312746           -8.51025
      7       0.00000           0.020223            0.55030
      8       0.00000           0.068159            1.85470
      9       0.00000           0.106823            2.90680
     10       0.00000           0.106829            2.90696
     11       0.00000           0.223164            6.07259

  Spin-down eigenvalues:
  K-point:       1 at    0.000000    0.000000    0.000000 (in units of recip. lattice)

  State    Occupation    Eigenvalue [Ha]    Eigenvalue [eV]
      1       1.00000          -9.978399         -271.52605
      2       1.00000          -9.977436         -271.49986
      3       1.00000          -0.920095          -25.03707
      4       1.00000          -0.482236          -13.12230
      5       1.00000          -0.312749           -8.51033
      6       1.00000          -0.312746           -8.51025
      7       0.00000           0.020223            0.55030
      8       0.00000           0.068159            1.85470
      9       0.00000           0.106823            2.90680
     10       0.00000           0.106829            2.90696
     11       0.00000           0.223164            6.07259

  Current spin moment of the entire structure :
  | N = N_up - N_down (sum over all k points):         0.00000
  | S (sum over all k points)                :         0.00000

  What follows are estimated values for band gap, HOMO, LUMO, etc.
  | They are estimated on a discrete k-point grid and not necessarily exact.
  | For converged numbers, create a DOS and/or band structure plot on a denser k-grid.

  Highest occupied state (VBM) at     -6.96568992 eV (relative to internal zero)
  | Occupation number:      1.00000000
  | K-point:       8 at    0.400000    0.200000    0.000000 (in units of recip. lattice)
  | Spin channel:        1

  Lowest unoccupied state (CBM) at    -4.14598167 eV (relative to internal zero)
  | Occupation number:      0.00000000
  | K-point:       8 at    0.400000    0.200000    0.000000 (in units of recip. lattice)
  | Spin channel:        2

  ESTIMATED overall HOMO-LUMO gap:      2.81970826 eV between HOMO at k-point 8 and LUMO at k-point 8
  | This appears to be a direct band gap.
  The gap value is above 0.2 eV. Unless you are using a very sparse k-point grid,
  this system is most likely an insulator or a semiconductor.

  Self-consistency cycle converged.

  End self-consistency iteration #    14       :  max(cpu_time)    wall_clock(cpu1)
  | Time for this iteration                    :        5.326 s           5.340 s
  | Charge density update                      :        3.226 s           3.233 s
  | Density mixing                             :        0.189 s           0.189 s
  | Hartree multipole update                   :        0.001 s           0.001 s
  | Hartree multipole summation                :        0.279 s           0.280 s
  | Integration                                :        1.618 s           1.623 s
  | Solution of K.-S. eqns.                    :        0.010 s           0.010 s
  | Total energy evaluation                    :        0.000 s           0.000 s
------------------------------------------------------------
  Obtaining max. number of non-zero basis functions in each batch .
  Evaluating KS electron density on previously omitted grid points, using the density matrix.
  Evaluating density matrix
  Evaluating density matrix
  Evaluating non-empirical van der Waals correction (Tkatchenko/Scheffler 2009).
  Performing Hirshfeld analysis of fragment charges and moments.
  ----------------------------------------------------------------------
  | Atom     1: C
  |   Hirshfeld charge        :     -0.00003372
  |   Free atom volume        :     38.37861207
  |   Hirshfeld volume        :     32.31950600
  |   Hirshfeld spin moment   :     -0.00000002
  |   Hirshfeld dipole vector :     -0.00004871      -0.00000012       0.00000001
  |   Hirshfeld dipole moment :      0.00004871
  |   Hirshfeld second moments:      0.08610797      -0.00000028       0.00000000
  |                                 -0.00000028       0.08592802      -0.00000000
  |                                  0.00000000      -0.00000000       0.25182604
  ----------------------------------------------------------------------
  | Atom     2: C
  |   Hirshfeld charge        :     -0.00003372
  |   Free atom volume        :     38.37861207
  |   Hirshfeld volume        :     32.31950600
  |   Hirshfeld spin moment   :     -0.00000002
  |   Hirshfeld dipole vector :      0.00004871       0.00000012      -0.00000001
  |   Hirshfeld dipole moment :      0.00004871
  |   Hirshfeld second moments:      0.08610797      -0.00000028       0.00000000
  |                                 -0.00000028       0.08592802      -0.00000000
  |                                  0.00000000      -0.00000000       0.25182604
  ----------------------------------------------------------------------

  Converging periodic supercell size for vdw calculation.

  Total energy components:
  | Sum of eigenvalues            :         -44.21307372 Ha       -1203.09894895 eV
  | XC energy correction          :         -10.81929078 Ha        -294.40788154 eV
  | XC potential correction       :          13.90042062 Ha         378.24969023 eV
  | Free-atom electrostatic energy:         -33.32004492 Ha        -906.68455390 eV
  | Hartree energy correction     :          -1.77237374 Ha         -48.22874340 eV
  | van der Waals energy corr.    :          -0.00381466 Ha          -0.10380221 eV
  | Entropy correction            :          -0.00000000 Ha          -0.00000000 eV
  | ---------------------------
  | Total energy                  :         -76.22817721 Ha       -2074.27423977 eV
  | Total energy, T -> 0          :         -76.22817721 Ha       -2074.27423977 eV  <-- do not rely on this value for anything but (periodic) metals
  | Electronic free energy        :         -76.22817721 Ha       -2074.27423977 eV

  Derived energy quantities:
  | Kinetic energy                :          75.99291704 Ha        2067.87248486 eV
  | Electrostatic energy          :        -141.39798880 Ha       -3847.63504089 eV
  | Energy correction for multipole
  | error in Hartree potential    :          -0.01147158 Ha          -0.31215761 eV
  | Sum of eigenvalues per atom                           :        -601.54947448 eV
  | Total energy (T->0) per atom                          :       -1037.13711989 eV  <-- do not rely on this value for anything but (periodic) metals
  | Electronic free energy per atom                       :       -1037.13711989 eV
  Timings for VdW correction (Tkatchenko-Scheffler 2009 or later):
  | CPU time:        1.249 s, Wall clock time:        1.251 s.

  Energy and forces in a compact form:
  | Total energy uncorrected      :         -0.207427423977389E+04 eV
  | Total energy corrected        :         -0.207427423977389E+04 eV  <-- do not rely on this value for anything but (periodic) metals
  | Electronic free energy        :         -0.207427423977389E+04 eV

  ------------------------------------ 
  Start decomposition of the XC Energy 
  ------------------------------------ 
  Hartree-Fock part   :          0.000000000 Ha              0.000000000 eV
  ------------------------------------ 
  X Energy            :        -10.399451467 Ha           -282.983472470 eV
  C Energy GGA        :         -0.419839317 Ha            -11.424409072 eV
  Total XC Energy     :        -10.819290784 Ha           -294.407881542 eV
  LDA X and C from self-consistent density 
  X Energy LDA        :         -9.434930970 Ha           -256.737534345 eV
  C Energy LDA        :         -0.796180558 Ha            -21.665175306 eV
  ------------------------------------ 
  End decomposition of the XC Energy 
  ------------------------------------ 
  Post-scf processing of Kohn-Sham eigenvalues on a denser k-point grid.
  | Using dos_kgrid_factors to calculate post-scf total density of states.
  | Electron chemical potential:    -6.946037567110 eV.
  Integrating Hamiltonian matrix: batch-based integration.
  Time summed over all CPUs for integration: real work       12.957 s, elapsed       13.134 s
  Processing batch of k-points:     1     1     1
  Processing batch of k-points:     1     2     1
  Processing batch of k-points:     2     1     1
  Processing batch of k-points:     2     2     1
  | writing perturbative DOS (shifted by electron chemical potential) to file KS_dos_total.dat
  | writing perturbative DOS (raw data) to file KS_dos_total_raw.dat

------------------------------------------------------------------------------
  Final output of selected total energy values:

  The following output summarizes some interesting total energy values
  at the end of a run (AFTER all relaxation, molecular dynamics, etc.).

  | Total energy of the DFT / Hartree-Fock s.c.f. calculation      :          -2074.274239774 eV
  | Final zero-broadening corrected energy (caution - metals only) :          -2074.274239774 eV
  | For reference only, the value of 1 Hartree used in FHI-aims is :             27.211384500 eV

  Before relying on these values, please be sure to understand exactly which
  total energy value is referred to by a given number. Different objects may
  all carry the same name 'total energy'. Definitions:

  Total energy of the DFT / Hartree-Fock s.c.f. calculation:
  | Note that this energy does not include ANY quantities calculated after the
  | s.c.f. cycle, in particular not ANY RPA, MP2, etc. many-body perturbation terms.

  Final zero-broadening corrected energy:
  | For metallic systems only, a broadening of the occupation numbers at the Fermi
  | level can be extrapolated back to zero broadening by an electron-gas inspired
  | formula. For all systems that are not real metals, this value can be
  | meaningless and should be avoided.

------------------------------------------------------------------------------

------------------------------------------------------------
          Leaving FHI-aims.
          Date     :  20220221, Time     :  151730.938

          Computational steps:
          | Number of self-consistency cycles          :           14

          Detailed time accounting                     :  max(cpu_time)    wall_clock(cpu1)
          | Total time                                 :       82.678 s          83.021 s
          | Preparation time                           :        0.162 s           0.172 s
          | Grid partitioning                          :        0.057 s           0.061 s
          | Preloading free-atom quantities on grid    :        0.005 s           0.005 s
          | Free-atom superposition energy             :        0.033 s           0.033 s
          | Total time for integrations                :       26.194 s          26.257 s
          | Total time for solution of K.-S. equations :        0.171 s           0.183 s
          | Total time for density update              :       45.848 s          45.947 s
          | Total time for mixing & preconditioning    :        2.722 s           2.728 s
          | Total time for Hartree multipole update    :        0.021 s           0.024 s
          | Total time for Hartree multipole sum       :        3.921 s           3.929 s
          | Total time for total energy evaluation     :        0.003 s           0.010 s
          | Total time for scaled ZORA corrections     :        0.000 s           0.000 s
          | Total time for vdW correction              :        1.249 s           1.251 s

          Have a nice day.
------------------------------------------------------------
