  MPI-parallelism will be employed.
------------------------------------------------------------
          Invoking FHI-aims ...
          Version 052014
          Git rev. (modified): 096c982 Merge branch master of fhiaims:/pub/localo[...]
          Compiled on 2016/12/16 at 15:22:01 on host login02.hpc.iitd.ac.in.

          When using FHI-aims, please cite the following reference:

          Volker Blum, Ralf Gehrke, Felix Hanke, Paula Havu,
          Ville Havu, Xinguo Ren, Karsten Reuter, and Matthias Scheffler,
          'Ab Initio Molecular Simulations with Numeric Atom-Centered Orbitals: FHI-aims',
          Computer Physics Communications 180, 2175-2196 (2009)

          For any questions about FHI-aims, please visit the aimsclub website
          with its forums and wiki. Contributions to both the forums and the
          wiki are warmly encouraged - they are for you, and everyone is welcome there.

------------------------------------------------------------

  Date     :  20220120, Time     :  152450.421
  Time zero on CPU 1             :   0.997200000000000E-02  s.
  Internal wall clock time zero  :           411924290.421  s.

  Using        8 parallel tasks.
  Task        0 on host csky038 reporting.
  Task        1 on host csky038 reporting.
  Task        2 on host csky038 reporting.
  Task        3 on host csky038 reporting.
  Task        4 on host csky038 reporting.
  Task        5 on host csky038 reporting.
  Task        6 on host csky038 reporting.
  Task        7 on host csky038 reporting.

  Performing system and environment tests:
  | Environment variable OMP_NUM_THREADS correctly set to 1.
  | Stacksize not measured: no C compiler
  | Checking for scalapack...
  | Testing pdtran()...
  | All pdtran() tests passed.

  Obtaining array dimensions for all initial allocations:
  
  -----------------------------------------------------------------------
  Parsing control.in (first pass over file, find array dimensions only).
  The contents of control.in will be repeated verbatim below
  unless switched off by setting 'verbatim_writeout .false.' .
  in the first line of control.in .
  -----------------------------------------------------------------------
  
    xc               pbe
    spin             collinear
    default_initial_moment hund
    relativistic     atomic_zora scalar 1e-9
    occupation_type  gaussian 0.001
    charge        0
    vdw_correction_hirshfeld
    KS_method        scalapack_fast
    mixer            pulay
    charge_mix_param  0.4
    spin_mix_param    0.6
    sc_accuracy_rho  1E-4
    sc_accuracy_eev  1E-5
    sc_accuracy_etot 1E-5
    sc_iter_limit    100
    empty_states     10
  ################################################################################
  #
  #  FHI-aims code project
  # Volker Blum, Fritz Haber Institute Berlin, 2009
  #
  #  Suggested "tight" defaults for H atom (to be pasted into control.in file)
  #
  ################################################################################
    species        H
  #     global species definitions
      nucleus             1
      mass                1.00794
  #
      l_hartree           6
  #
      cut_pot             4.0  2.0  1.0
      basis_dep_cutoff    1e-4
  #
      radial_base         24 7.0
      radial_multiplier   2
      angular_grids       specified
        division   0.1930   50
        division   0.3175  110
        division   0.4293  194
        division   0.5066  302
        division   0.5626  434
  #      division   0.5922  590
  #      division   0.6227  974
  #      division   0.6868 1202
  #      outer_grid  770
        outer_grid  434
  ################################################################################
  #
  #  Definition of "minimal" basis
  #
  ################################################################################
  #     valence basis states
      valence      1  s   1.
  #     ion occupancy
      ion_occ      1  s   0.5
  ################################################################################
  #
  #  Suggested additional basis functions. For production calculations,
  #  uncomment them one after another (the most important basis functions are
  #  listed first).
  #
  #  Basis constructed for dimers: 0.5 A, 0.7 A, 1.0 A, 1.5 A, 2.5 A
  #
  ################################################################################
  #  "First tier" - improvements: -1014.90 meV to -62.69 meV
       hydro 2 s 2.1
       hydro 2 p 3.5
  #  "Second tier" - improvements: -12.89 meV to -1.83 meV
       hydro 1 s 0.85
       hydro 2 p 3.7
       hydro 2 s 1.2
       hydro 3 d 7
  #  "Third tier" - improvements: -0.25 meV to -0.12 meV
  #     hydro 4 f 11.2
  #     hydro 3 p 4.8
  #     hydro 4 d 9
  #     hydro 3 s 3.2
  ################################################################################
  #
  # For methods that use the localized form of the "resolution of identity" for
  # the two-electron Coulomb operator (RI_method LVL), particularly Hartree-Fock and
  # hybrid density functional calculations, the highest accuracy can be obtained by
  # uncommenting the line beginning with "for_aux"  below, thus adding an extra g radial
  # function to the construction of the product basis set for the expansion.
  # See Ref. New J. Phys. 17, 093020 (2015) for more information, particularly Figs. 1 and 6.
  #
  ################################################################################
  #
  # for_aux hydro 5 g 6.0
  
  -----------------------------------------------------------------------
  Completed first pass over input file control.in .
  -----------------------------------------------------------------------
  
  
  -----------------------------------------------------------------------
  Parsing geometry.in (first pass over file, find array dimensions only).
  The contents of geometry.in will be repeated verbatim below
  unless switched off by setting 'verbatim_writeout .false.' .
  in the first line of geometry.in .
  -----------------------------------------------------------------------
  
  atom 0 0 0 H
  atom 0 0 0.36 H
  
  -----------------------------------------------------------------------
  Completed first pass over input file geometry.in .
  -----------------------------------------------------------------------
  

  Basic array size parameters:
  | Number of species                 :        1
  | Number of atoms                   :        2
  | Max. basis fn. angular momentum   :        2
  | Max. atomic/ionic basis occupied n:        1
  | Max. number of basis fn. types    :        2
  | Max. radial fns per species/type  :        6
  | Max. logarithmic grid size        :     1131
  | Max. radial integration grid size :       49
  | Max. angular integration grid size:      434
  | Max. angular grid division number :        8
  | Radial grid for Hartree potential :     1131
  | Number of spin channels           :        2

------------------------------------------------------------
          Reading file control.in.
------------------------------------------------------------
  XC: Using PBE gradient-corrected functionals.
  Spin treatment: Spin density functional theory - collinear spins.
  Initial spin moment per atom set according to Hund's rules.
  Scalar relativistic treatment of kinetic energy: on-site free-atom approximation to ZORA.
  Occupation type: Gaussian broadening, width =   0.100000E-02 eV.
  Charge =   0.000000E+00: Neutral system requested explicitly.
  Using non-empirical van der Waals correction (Hirshfeld partitioning):
  Kohn-Sham eigenvalues and eigenfunctions calculated by the ELPA eigensolver library.
  Using pulay charge density mixing.
  Charge density mixing - mixing parameter:     0.4000
  Spin density mixing - mixing parameter:     0.6000
  Convergence accuracy of self-consistent charge density: 0.1000E-03
  Convergence accuracy of sum of eigenvalues: 0.1000E-04
  Convergence accuracy of total energy: 0.1000E-04
  Maximum number of s.-c. iterations  :   100
  Number of empty states per atom:       10
 
  Reading configuration options for species H                   .
  | Found nuclear charge :   1.0000
  | Found atomic mass :    1.00794000000000      amu
  | Found l_max for Hartree potential  :   6
  | Found cutoff potl. onset [A], width [A], scale factor :    4.00000    2.00000    1.00000
  | Threshold for basis-dependent cutoff potential is   0.100000E-03
  | Found data for basic radial integration grid :    24 points, outermost radius =    7.000 A
  | Found multiplier for basic radial grid :   2
  | Found angular grid specification: user-specified.
  | Specified grid contains     6 separate shells.
  | Check grid settings after all constraints further below.
  | Found free-atom valence shell :  1 s   1.000
  | No ionic wave fns used. Skipping ion_occ.
  | Found hydrogenic basis function :  2 s   2.100
  | Found hydrogenic basis function :  2 p   3.500
  | Found hydrogenic basis function :  1 s   0.850
  | Found hydrogenic basis function :  2 p   3.700
  | Found hydrogenic basis function :  2 s   1.200
  | Found hydrogenic basis function :  3 d   7.000
  Species H                   : Missing cutoff potential type.
  Defaulting to exp(1/x)/(1-x)^2 type cutoff potential.
  Species H : No 'logarithmic' tag. Using default grid for free atom:
  | Default logarithmic grid data [bohr] : 0.1000E-03 0.1000E+03 0.1012E+01
  Species H : On-site basis accuracy parameter (for Gram-Schmidt orthonormalisation) not specified.
  Using default value basis_acc =  0.1000000E-03.
  Species H                   : Using default innermost maximum threshold i_radial=  2 for radial functions.
  Species H                   : Default cutoff onset for free atom density etc. : 0.40000000E+01 AA.
  Species H                   : Basic radial grid will be enhanced according to radial_multiplier =   2, to contain    49 grid points.
 
  Finished reading input file 'control.in'. Consistency checks are next.
 
  Target number of points in a grid batch is not set. Defaulting to  100
  Method for grid partitioning is not set. Defaulting to parallel hash+maxmin partitioning.
  Batch size limit is not set. Defaulting to    200
  By default, will store active basis functions for each batch.
  If in need of memory, prune_basis_once .false. can be used to disable this option.
  communication_type for Hartree potential was not specified.
  Defaulting to calc_hartree .
  Pulay mixer: Number of relevant iterations not set.
  Defaulting to    8 iterations.
  Pulay mixer: Number of initial linear mixing iterations not set.
  Defaulting to    0 iterations.
  Work space size for distributed Hartree potential not set.
  Defaulting to   0.200000E+03 MB.
  Algorithm-dependent basis array size parameters:
  | n_max_pulay                         :        8
  Calculation of forces was not defined in control.in. No forces will be calculated.
  Geometry relaxation not requested: no relaxation will be performed.
  No accuracy limit for integral partition fn. given. Defaulting to 0.1000E-14.
  No threshold value for u(r) in integrations given. Defaulting to 0.1000E-05.
  No accuracy for occupation numbers given. Defaulting to 0.1000E-07.
  No threshold value for occupation numbers given. Defaulting to 0.0000E+00.
  No accuracy for fermi level given. Defaulting to 0.1000E-19.
  Maximum # of iterations to find E_F not set. Defaulting to  200.
  Will not use alltoall communication since running on < 1024 CPUs.
  Threshold for basis singularities not set.
  Default threshold for basis singularities: 0.1000E-04
  partition_type (choice of integration weights) for integrals was not specified.
  | Using a version of the partition function of Stratmann and coworkers ('stratmann_smoother').
  | At each grid point, the set of atoms used to build the partition table is smoothly restricted to
  | only those atoms whose free-atom density would be non-zero at that grid point.
  Partitioning for Hartree potential was not defined. Using partition_type for integrals.
  | Adjusted default value of keyword multip_moments_threshold to:       0.10000000E-11
  | This value may affect high angular momentum components of the Hartree potential in periodic systems.
  No q(lm)/r^(l+1) cutoff set for long-range Hartree potential.
  | Using default value of  0.100000E-09 .
  | Verify using the multipole_threshold keyword.
  Defaulting to new monopole extrapolation.
  Density update method: automatic selection selected.
------------------------------------------------------------


------------------------------------------------------------
          Reading geometry description geometry.in.
------------------------------------------------------------
  Input structure read successfully.
  The structure contains        2 atoms,  and a total of          2.000 electrons.

  Input geometry:
  | No unit cell requested.
  | Atomic structure:
  |       Atom                x [A]            y [A]            z [A]
  |    1: Species H              0.000000         0.000000         0.000000
  |    2: Species H              0.000000         0.000000         0.360000
  |

  | The smallest distance between any two atoms is         0.36000000 AA.
  |
  | The first atom of this pair is atom number                      1 .
  | The second atom of this pair is atom number                     2 .

  Initial moments and charges:
  |  Atom   Moment         Charge        Species
  |     1  (Hund's rule)   0.000000E+00   H
  |     2  (Hund's rule)   0.000000E+00   H

  Structure-dependent array size parameters: 
  | Number of distinct atom types in initial rho :        1
  | Maximum number of distinct radial functions  :        7
  | Maximum number of basis functions            :       30
  | Number of Kohn-Sham states (occupied + empty):       11
------------------------------------------------------------

------------------------------------------------------------
          Preparing all fixed parts of the calculation.
------------------------------------------------------------
  Determining machine precision:
    2.225073858507201E-308
  Setting up grids for atomic and cluster calculations.

  Creating wave function, potential, and density for free atoms.

  Species: H

  List of occupied orbitals and eigenvalues:
    n    l              occ      energy [Ha]    energy [eV]
    1    0           1.0000        -0.238386        -6.4868

  Spin-polarized or charged system:
  Charge density initialized according to selected moments and charges.

  Creating spin-polarized density from free atoms.

  Species: H
  Charge:   0.000000
  applying Hund's rules ...

  List of occupied orbitals and eigenvalues:
    n    l      energy [Ha]    energy [eV]    occupation
  Spin-up
    1    0        -0.278991        -7.5917     1.00000000
  Spin-down
    1    0         0.090850         2.4721     0.00000000

  Creating fixed part of basis set: Ionic, confined, hydrogenic.
 
  H                    hydrogenic:
 
  List of hydrogenic basis orbitals: 
    n    l      effective z      eigenvalue [eV]  inner max. [A]     outer max. [A]     outer radius [A]   
    2    0         2.100000       -14.9965           0.193243           1.317208           5.373006
    2    1         3.500000       -41.6672           0.602369           0.602369           4.056063
    1    0         0.850000        -9.8292           0.624871           0.624871           5.373006
    2    1         3.700000       -46.5653           0.573622           0.573622           3.910002
    2    0         1.200000        -4.5995           0.334980           2.228188           5.505995
    3    2         7.000000       -74.0753           0.680699           0.680699           3.769201
 

  Adding cutoff potential to free-atom effective potential.
  Creating atomic-like basis functions for current effective potential.

  Species H                   :

  List of atomic basis orbitals and eigenvalues:
    n    l      energy [Ha]    energy [eV]    outer radius [A]
    1    0        -0.238386        -6.4868       5.373006

  Assembling full basis from fixed parts.
  | Species H :   atomic orbital   1 s accepted.
  | Species H :    hydro orbital   2 s accepted.
  | Species H :    hydro orbital   1 s accepted.
  | Species H :    hydro orbital   2 s accepted.
  | Species H :    hydro orbital   2 p accepted.
  | Species H :    hydro orbital   2 p accepted.
  | Species H :    hydro orbital   3 d accepted.
 
  Basis size parameters after reduction:
  | Total number of radial functions:        7
  | Total number of basis functions :       30
 
  Testing on-site integration grid accuracy.
  |  Species  Function  <phi|h_atom|phi> (log., in eV)  <phi|h_atom|phi> (rad., in eV)
           1        1                 -6.4870767962                 -6.4871688290
           1        2                 13.5032046589                 13.5028982997
           1        3                 32.8195184817                 32.8119941656
           1        4                 33.8513856511                 33.7670005767 ***
           1        5                 28.8544614965                 28.8544615203
           1        6                 59.6326952547                 59.6327656460
           1        7                 60.2719308513                 60.2719305949
 * Note: Onsite integrals marked "***" above are less accurate than
 * onsite_accuracy_threshold =    0.03000 eV. Usually, this is harmless.
 * When in doubt, tighten the "radial" and/or "radial_multiplier" flags to check.

  Preparing densities etc. for the partition functions (integrals / Hartree potential).

  Preparations completed.
  max(cpu_time)          :      0.069 s.
  Wall clock time (cpu1) :      0.070 s.
------------------------------------------------------------

------------------------------------------------------------
          Begin self-consistency loop: Initialization.

          Date     :  20220120, Time     :  152450.551
------------------------------------------------------------

  Initializing index lists of integration centers etc. from given atomic structure:
  | Number of centers in hartree potential         :         2
  | Number of centers in hartree multipole         :         2
  | Number of centers in electron density summation:         2
  | Number of centers in basis integrals           :         2
  | Number of centers in integrals                 :         2
  Using modified Scalapack Eigenvalue solver (ELPA)
  * Using 8 tasks for Scalapack Eigenvalue solver.
  Detailed listing of tasks and assigned k-points:
  (for non-periodic systems, the "k-point" denotes an internal label only)
   Task     0 k-point     1 on csky038
   Task     1 k-point     1 on csky038
   Task     2 k-point     1 on csky038
   Task     3 k-point     1 on csky038
   Task     4 k-point     1 on csky038
   Task     5 k-point     1 on csky038
   Task     6 k-point     1 on csky038
   Task     7 k-point     1 on csky038
  Tasks:     8 split into      4 X      2 BLACS grid
  Calculating blocksize based on n_basis =           30 max_nprow =            4 max_npcol =            2
  Scalapack blocksize set to:            4
  Required Scalapack workspace - INTEGER:            1 REAL:             1
  Partitioning the integration grid into batches with parallel hashing+maxmin method.
  | Number of batches:      445
  | Maximal batch size:     197
  | Minimal batch size:      49
  | Average batch size:      64.944
  | Standard deviation of batch sizes:      18.283

  Integration load balanced across     8 MPI tasks.
  Work distribution over tasks is as follows:
  Task     0 has       3587 integration points.
  Task     1 has       3581 integration points.
  Task     2 has       3663 integration points.
  Task     3 has       3585 integration points.
  Task     4 has       3624 integration points.
  Task     5 has       3587 integration points.
  Task     6 has       3595 integration points.
  Task     7 has       3678 integration points.
  Initializing partition tables, free-atom densities, potentials, etc. across the integration grid (initialize_grid_storage).
  | initialize_grid_storage: Actual outermost partition radius vs. multipole_radius_free
  | (-- VB: in principle, multipole_radius_free should be larger, hence this output)
  | Species        1: outer_partition_radius =              6.000000000000000 AA, multipole_radius_free =              6.071692442739658 AA.
  | Original list of interatomic distances with           2 x          2 entries is created.
  | Net number of integration points:    28900
  | of which are non-zero points    :    25710
  Obtaining max. number of non-zero basis functions in each batch (get_n_compute_maxes).
  | Maximal number of non-zero basis functions:       30 in task     0
  | Maximal number of non-zero basis functions:       30 in task     1
  | Maximal number of non-zero basis functions:       30 in task     2
  | Maximal number of non-zero basis functions:       30 in task     3
  | Maximal number of non-zero basis functions:       30 in task     4
  | Maximal number of non-zero basis functions:       30 in task     5
  | Maximal number of non-zero basis functions:       30 in task     6
  | Maximal number of non-zero basis functions:       30 in task     7
  Selecting the method for density update.
  Loop over occupied states selected for charge density update.
  Integrating Hamiltonian matrix: batch-based integration.
  Time summed over all CPUs for integration: real work        0.072 s, elapsed        0.081 s
  Integrating overlap matrix.
  Time summed over all CPUs for integration: real work        0.021 s, elapsed        0.027 s
  Deallocating overlap matrix.

  Updating Kohn-Sham eigenvalues, eigenvectors, occupation numbers, and Fermi level.
  Solving generalized eigenproblem
  Solving real symmetric generalised eigenvalue problem by standard ScaLAPACK.
  Transforming overlap matrix with ScaLAPACK and checking for singularities.
  : Overlap matrix is nonsingular, using Cholesky decomposition
  | Lowest eigenvalue:  0.409045E-04
  Factoring overlap matrix with Cholesky decomposition
  Using Cholesky factor for transformation
  Using 1-stage real ELPA solver
  Solving real symmetric generalised eigenvalue problem by standard ScaLAPACK.
  Using Cholesky factor for transformation
  Using 1-stage real ELPA solver
  Determining occupation numbers for Kohn-Sham eigenstates.
  | Chemical potential (Fermi level) in eV                 : -.19723689E+00
  | Error in electron count due to remaining E_F inaccuracy: 0.00000000E+00
  | Maximum occupation number of highest empty state:  0.00E+00

  Writing Kohn-Sham eigenvalues.

  Spin-up eigenvalues:

  State    Occupation    Eigenvalue [Ha]    Eigenvalue [eV]
      1       1.00000          -0.848268          -23.08256
      2       1.00000          -0.008932           -0.24305
      3       0.00000          -0.002011           -0.05473
      4       0.00000           0.147323            4.00885
      5       0.00000           0.200994            5.46932
      6       0.00000           0.200994            5.46932
      7       0.00000           0.251510            6.84393
      8       0.00000           0.601882           16.37806
      9       0.00000           0.642506           17.48348
     10       0.00000           0.642506           17.48348
     11       0.00000           0.707466           19.25113

  Spin-down eigenvalues:

  State    Occupation    Eigenvalue [Ha]    Eigenvalue [eV]
      1       0.00000           0.099232            2.70024
      2       0.00000           0.109001            2.96607
      3       0.00000           0.518382           14.10589
      4       0.00000           0.524850           14.28189
      5       0.00000           1.103121           30.01745
      6       0.00000           1.205716           32.80920
      7       0.00000           1.205716           32.80920
      8       0.00000           1.319297           35.89989
      9       0.00000           1.319297           35.89989
     10       0.00000           1.503401           40.90963
     11       0.00000           1.731611           47.11953

  Current spin moment of the entire structure :
  | N = N_up - N_down :    2.00
  | S                 :    1.00
  | J                 :    3.00

  Highest occupied state (VBM) at     -0.24304544 eV
  | Occupation number:      1.00000000
  | Spin channel:        1

  Lowest unoccupied state (CBM) at    -0.05473180 eV
  | Occupation number:      0.00000000
  | Spin channel:        1

  Overall HOMO-LUMO gap:      0.18831364 eV.
  Calculating total energy contributions from superposition of free atom densities.

  Total energy components:
  | Sum of eigenvalues            :          -0.85720013 Ha         -23.32560227 eV
  | XC energy correction          :          -0.72779398 Ha         -19.80428182 eV
  | XC potential correction       :           0.93979699 Ha          25.57317726 eV
  | Free-atom electrostatic energy:           0.33974228 Ha           9.24485785 eV
  | Hartree energy correction     :           0.00000000 Ha           0.00000000 eV
  | van der Waals energy corr.    :           0.00000000 Ha           0.00000000 eV
  | Entropy correction            :           0.00000000 Ha           0.00000000 eV
  | ---------------------------
  | Total energy                  :          -0.30545484 Ha          -8.31184898 eV
  | Total energy, T -> 0          :          -0.30545484 Ha          -8.31184898 eV  <-- do not rely on this value for anything but (periodic) metals
  | Electronic free energy        :          -0.30545484 Ha          -8.31184898 eV

  Derived energy quantities:
  | Kinetic energy                :           1.30364890 Ha          35.47409141 eV
  | Electrostatic energy          :          -0.88130975 Ha         -23.98165858 eV
  | Energy correction for multipole
  | error in Hartree potential    :           0.00000000 Ha           0.00000000 eV
  | Sum of eigenvalues per atom                           :         -11.66280114 eV
  | Total energy (T->0) per atom                          :          -4.15592449 eV  <-- do not rely on this value for anything but (periodic) metals
  | Electronic free energy per atom                       :          -4.15592449 eV
  Initialize hartree_potential_storage
  Max. number of atoms included in rho_multipole:            2

  End scf initialization - timings             :  max(cpu_time)    wall_clock(cpu1)
  | Time for scf. initialization               :        0.036 s           0.037 s
  | Boundary condition initialization          :        0.000 s           0.001 s
  | Integration                                :        0.014 s           0.014 s
  | Solution of K.-S. eqns.                    :        0.007 s           0.007 s
  | Grid partitioning                          :        0.006 s           0.006 s
  | Preloading free-atom quantities on grid    :        0.003 s           0.003 s
  | Free-atom superposition energy             :        0.002 s           0.002 s
  | Total energy evaluation                    :        0.000 s           0.001 s
------------------------------------------------------------

------------------------------------------------------------
          Begin self-consistency iteration #    1

  Date     :  20220120, Time     :  152450.588
------------------------------------------------------------
  Evaluating new KS density.
  Integration grid: deviation in total charge (<rho> - N_e) =   8.285190E-07
  | <rho_up-rho_dn> = N_up-N_dn =      2.0000; <|rho_up-rho_dn|> =      2.5241
  Pulay mixing of updated and previous charge densities.

  Evaluating partitioned Hartree potential by multipole expansion.
  | Analytical far-field extrapolation by fixed multipoles:
  | Hartree multipole sum: apparent total charge =  -0.262806E-04
  Summing up the Hartree potential.
  Time summed over all CPUs for potential: real work        0.031 s, elapsed        0.031 s
  | RMS charge density error from multipole expansion :   0.760319E-03

  Integrating Hamiltonian matrix: batch-based integration.
  Time summed over all CPUs for integration: real work        0.058 s, elapsed        0.063 s

  Updating Kohn-Sham eigenvalues, eigenvectors, occupation numbers, and Fermi level.
  Solving generalized eigenproblem
  Solving real symmetric generalised eigenvalue problem by standard ScaLAPACK.
  Using Cholesky factor for transformation
  Using 1-stage real ELPA solver
  Solving real symmetric generalised eigenvalue problem by standard ScaLAPACK.
  Using Cholesky factor for transformation
  Using 1-stage real ELPA solver
  Determining occupation numbers for Kohn-Sham eigenstates.
  | Chemical potential (Fermi level) in eV                 : -.92781700E+01
  | Error in electron count due to remaining E_F inaccuracy: 0.00000000E+00
  | Maximum occupation number of highest empty state:  0.00E+00

  Writing Kohn-Sham eigenvalues.

  Spin-up eigenvalues:

  State    Occupation    Eigenvalue [Ha]    Eigenvalue [eV]
      1       1.00000          -0.640331          -17.42430
      2       0.00000           0.040829            1.11102
      3       0.00000           0.066322            1.80473
      4       0.00000           0.167446            4.55644
      5       0.00000           0.198122            5.39116
      6       0.00000           0.198122            5.39116
      7       0.00000           0.317282            8.63368
      8       0.00000           0.646279           17.58615
      9       0.00000           0.653424           17.78056
     10       0.00000           0.653424           17.78056
     11       0.00000           0.728069           19.81176

  Spin-down eigenvalues:

  State    Occupation    Eigenvalue [Ha]    Eigenvalue [eV]
      1       1.00000          -0.463098          -12.60153
      2       0.00000           0.067828            1.84570
      3       0.00000           0.074593            2.02977
      4       0.00000           0.213167            5.80057
      5       0.00000           0.303029            8.24584
      6       0.00000           0.303029            8.24584
      7       0.00000           0.358552            9.75668
      8       0.00000           0.719828           19.58753
      9       0.00000           0.719828           19.58753
     10       0.00000           0.726971           19.78189
     11       0.00000           0.803664           21.86880

  Current spin moment of the entire structure :
  | N = N_up - N_down :    0.00
  | S                 :    0.00
  | J                 :    1.00

  Highest occupied state (VBM) at    -12.60153141 eV
  | Occupation number:      1.00000000
  | Spin channel:        2

  Lowest unoccupied state (CBM) at     1.11102237 eV
  | Occupation number:      0.00000000
  | Spin channel:        1

  Overall HOMO-LUMO gap:     13.71255379 eV.

  Total energy components:
  | Sum of eigenvalues            :          -1.10342906 Ha         -30.02583232 eV
  | XC energy correction          :          -0.40962005 Ha         -11.14632856 eV
  | XC potential correction       :           0.52270593 Ha          14.22355201 eV
  | Free-atom electrostatic energy:           0.33974228 Ha           9.24485785 eV
  | Hartree energy correction     :           0.09255040 Ha           2.51842451 eV
  | van der Waals energy corr.    :           0.00000000 Ha           0.00000000 eV
  | Entropy correction            :           0.00000000 Ha           0.00000000 eV
  | ---------------------------
  | Total energy                  :          -0.55805049 Ha         -15.18532651 eV
  | Total energy, T -> 0          :          -0.55805049 Ha         -15.18532651 eV  <-- do not rely on this value for anything but (periodic) metals
  | Electronic free energy        :          -0.55805049 Ha         -15.18532651 eV

  Derived energy quantities:
  | Kinetic energy                :           0.86060253 Ha          23.41818626 eV
  | Electrostatic energy          :          -1.00903297 Ha         -27.45718420 eV
  | Energy correction for multipole
  | error in Hartree potential    :           0.00000267 Ha           0.00007263 eV
  | Sum of eigenvalues per atom                           :         -15.01291616 eV
  | Total energy (T->0) per atom                          :          -7.59266325 eV  <-- do not rely on this value for anything but (periodic) metals
  | Electronic free energy per atom                       :          -7.59266325 eV

  Self-consistency convergence accuracy:
  | Change of charge/spin density : 0.1432E+00 0.1432E+00
  | Change of sum of eigenvalues  : -.6700E+01 eV
  | Change of total energy        : -.6873E+01 eV

  End self-consistency iteration #     1       :  max(cpu_time)    wall_clock(cpu1)
  | Time for this iteration                    :        0.024 s           0.024 s
  | Charge density update                      :        0.006 s           0.006 s
  | Density mixing                             :        0.001 s           0.000 s
  | Hartree multipole update                   :        0.001 s           0.002 s
  | Hartree multipole summation                :        0.005 s           0.004 s
  | Integration                                :        0.008 s           0.009 s
  | Solution of K.-S. eqns.                    :        0.001 s           0.001 s
  | Total energy evaluation                    :        0.000 s           0.001 s
------------------------------------------------------------

------------------------------------------------------------
          Begin self-consistency iteration #    2

  Date     :  20220120, Time     :  152450.617
------------------------------------------------------------
  Evaluating new KS density.
  Integration grid: deviation in total charge (<rho> - N_e) =   4.971114E-07
  | <rho_up-rho_dn> = N_up-N_dn =     -2.0000; <|rho_up-rho_dn|> =      2.0000
  Pulay mixing of updated and previous charge densities.

  Evaluating partitioned Hartree potential by multipole expansion.
  | Analytical far-field extrapolation by fixed multipoles:
  | Hartree multipole sum: apparent total charge =  -0.239268E-04
  Summing up the Hartree potential.
  Time summed over all CPUs for potential: real work        0.030 s, elapsed        0.030 s
  | RMS charge density error from multipole expansion :   0.829711E-03

  Integrating Hamiltonian matrix: batch-based integration.
  Time summed over all CPUs for integration: real work        0.059 s, elapsed        0.062 s

  Updating Kohn-Sham eigenvalues, eigenvectors, occupation numbers, and Fermi level.
  Solving generalized eigenproblem
  Solving real symmetric generalised eigenvalue problem by standard ScaLAPACK.
  Using Cholesky factor for transformation
  Using 1-stage real ELPA solver
  Solving real symmetric generalised eigenvalue problem by standard ScaLAPACK.
  Using Cholesky factor for transformation
  Using 1-stage real ELPA solver
  Determining occupation numbers for Kohn-Sham eigenstates.
  | Chemical potential (Fermi level) in eV                 : -.13888055E+02
  | Error in electron count due to remaining E_F inaccuracy: 0.00000000E+00
  | Maximum occupation number of highest empty state:  0.00E+00

  Current spin moment of the entire structure :
  | N = N_up - N_down :    0.00
  | S                 :    0.00
  | J                 :    1.00

  Highest occupied state (VBM) at    -16.77334379 eV
  | Occupation number:      1.00000000
  | Spin channel:        2

  Lowest unoccupied state (CBM) at     0.89258616 eV
  | Occupation number:      0.00000000
  | Spin channel:        1

  Overall HOMO-LUMO gap:     17.66592995 eV.

  Total energy components:
  | Sum of eigenvalues            :          -1.46531558 Ha         -39.87326575 eV
  | XC energy correction          :          -0.61488675 Ha         -16.73191971 eV
  | XC potential correction       :           0.79102559 Ha          21.52490158 eV
  | Free-atom electrostatic energy:           0.33974228 Ha           9.24485785 eV
  | Hartree energy correction     :           0.05449822 Ha           1.48297193 eV
  | van der Waals energy corr.    :           0.00000000 Ha           0.00000000 eV
  | Entropy correction            :           0.00000000 Ha           0.00000000 eV
  | ---------------------------
  | Total energy                  :          -0.89493624 Ha         -24.35245410 eV
  | Total energy, T -> 0          :          -0.89493624 Ha         -24.35245410 eV  <-- do not rely on this value for anything but (periodic) metals
  | Electronic free energy        :          -0.89493624 Ha         -24.35245410 eV

  Derived energy quantities:
  | Kinetic energy                :           0.78283215 Ha          21.30194653 eV
  | Electrostatic energy          :          -1.06288164 Ha         -28.92248093 eV
  | Energy correction for multipole
  | error in Hartree potential    :           0.00002614 Ha           0.00071132 eV
  | Sum of eigenvalues per atom                           :         -19.93663288 eV
  | Total energy (T->0) per atom                          :         -12.17622705 eV  <-- do not rely on this value for anything but (periodic) metals
  | Electronic free energy per atom                       :         -12.17622705 eV

  Self-consistency convergence accuracy:
  | Change of charge/spin density : 0.1743E+00 0.3572E+00
  | Change of sum of eigenvalues  : -.9847E+01 eV
  | Change of total energy        : -.9167E+01 eV

  End self-consistency iteration #     2       :  max(cpu_time)    wall_clock(cpu1)
  | Time for this iteration                    :        0.022 s           0.023 s
  | Charge density update                      :        0.006 s           0.006 s
  | Density mixing                             :        0.001 s           0.001 s
  | Hartree multipole update                   :        0.001 s           0.001 s
  | Hartree multipole summation                :        0.004 s           0.004 s
  | Integration                                :        0.008 s           0.008 s
  | Solution of K.-S. eqns.                    :        0.001 s           0.002 s
  | Total energy evaluation                    :        0.000 s           0.001 s
------------------------------------------------------------

------------------------------------------------------------
          Begin self-consistency iteration #    3

  Date     :  20220120, Time     :  152450.641
------------------------------------------------------------
  Evaluating new KS density.
  Integration grid: deviation in total charge (<rho> - N_e) =   4.548309E-07
  | <rho_up-rho_dn> = N_up-N_dn =     -1.7448; <|rho_up-rho_dn|> =      1.7448
  Pulay mixing of updated and previous charge densities.

  Evaluating partitioned Hartree potential by multipole expansion.
  | Analytical far-field extrapolation by fixed multipoles:
  | Hartree multipole sum: apparent total charge =  -0.258384E-04
  Summing up the Hartree potential.
  Time summed over all CPUs for potential: real work        0.030 s, elapsed        0.030 s
  | RMS charge density error from multipole expansion :   0.479634E-03

  Integrating Hamiltonian matrix: batch-based integration.
  Time summed over all CPUs for integration: real work        0.058 s, elapsed        0.061 s

  Updating Kohn-Sham eigenvalues, eigenvectors, occupation numbers, and Fermi level.
  Solving generalized eigenproblem
  Solving real symmetric generalised eigenvalue problem by standard ScaLAPACK.
  Using Cholesky factor for transformation
  Using 1-stage real ELPA solver
  Solving real symmetric generalised eigenvalue problem by standard ScaLAPACK.
  Using Cholesky factor for transformation
  Using 1-stage real ELPA solver
  Determining occupation numbers for Kohn-Sham eigenstates.
  | Chemical potential (Fermi level) in eV                 : -.10291401E+02
  | Error in electron count due to remaining E_F inaccuracy: 0.00000000E+00
  | Maximum occupation number of highest empty state:  0.00E+00

  Current spin moment of the entire structure :
  | N = N_up - N_down :    0.00
  | S                 :    0.00
  | J                 :    1.00

  Highest occupied state (VBM) at    -13.89898103 eV
  | Occupation number:      1.00000000
  | Spin channel:        2

  Lowest unoccupied state (CBM) at     0.75067929 eV
  | Occupation number:      0.00000000
  | Spin channel:        1

  Overall HOMO-LUMO gap:     14.64966032 eV.

  Total energy components:
  | Sum of eigenvalues            :          -1.19233869 Ha         -32.44518666 eV
  | XC energy correction          :          -0.44201523 Ha         -12.02784629 eV
  | XC potential correction       :           0.56548351 Ha          15.38758916 eV
  | Free-atom electrostatic energy:           0.33974228 Ha           9.24485785 eV
  | Hartree energy correction     :           0.11251465 Ha           3.06167951 eV
  | van der Waals energy corr.    :           0.00000000 Ha           0.00000000 eV
  | Entropy correction            :           0.00000000 Ha           0.00000000 eV
  | ---------------------------
  | Total energy                  :          -0.61661348 Ha         -16.77890643 eV
  | Total energy, T -> 0          :          -0.61661348 Ha         -16.77890643 eV  <-- do not rely on this value for anything but (periodic) metals
  | Electronic free energy        :          -0.61661348 Ha         -16.77890643 eV

  Derived energy quantities:
  | Kinetic energy                :           0.73957637 Ha          20.12489689 eV
  | Electrostatic energy          :          -0.91417462 Ha         -24.87595702 eV
  | Energy correction for multipole
  | error in Hartree potential    :          -0.00000493 Ha          -0.00013420 eV
  | Sum of eigenvalues per atom                           :         -16.22259333 eV
  | Total energy (T->0) per atom                          :          -8.38945321 eV  <-- do not rely on this value for anything but (periodic) metals
  | Electronic free energy per atom                       :          -8.38945321 eV

  Self-consistency convergence accuracy:
  | Change of charge/spin density : 0.3164E+00 0.2903E+00
  | Change of sum of eigenvalues  : 0.7428E+01 eV
  | Change of total energy        : 0.7574E+01 eV

  End self-consistency iteration #     3       :  max(cpu_time)    wall_clock(cpu1)
  | Time for this iteration                    :        0.022 s           0.022 s
  | Charge density update                      :        0.006 s           0.006 s
  | Density mixing                             :        0.001 s           0.001 s
  | Hartree multipole update                   :        0.001 s           0.001 s
  | Hartree multipole summation                :        0.004 s           0.004 s
  | Integration                                :        0.008 s           0.008 s
  | Solution of K.-S. eqns.                    :        0.001 s           0.001 s
  | Total energy evaluation                    :        0.000 s           0.000 s
------------------------------------------------------------

------------------------------------------------------------
          Begin self-consistency iteration #    4

  Date     :  20220120, Time     :  152450.668
------------------------------------------------------------
  Evaluating new KS density.
  Integration grid: deviation in total charge (<rho> - N_e) =   4.803736E-07
  | <rho_up-rho_dn> = N_up-N_dn =     -1.8711; <|rho_up-rho_dn|> =      1.8711
  Pulay mixing of updated and previous charge densities.

  Evaluating partitioned Hartree potential by multipole expansion.
  | Analytical far-field extrapolation by fixed multipoles:
  | Hartree multipole sum: apparent total charge =  -0.289587E-04
  Summing up the Hartree potential.
  Time summed over all CPUs for potential: real work        0.030 s, elapsed        0.030 s
  | RMS charge density error from multipole expansion :   0.458521E-02

  Integrating Hamiltonian matrix: batch-based integration.
  Time summed over all CPUs for integration: real work        0.059 s, elapsed        0.063 s

  Updating Kohn-Sham eigenvalues, eigenvectors, occupation numbers, and Fermi level.
  Solving generalized eigenproblem
  Solving real symmetric generalised eigenvalue problem by standard ScaLAPACK.
  Using Cholesky factor for transformation
  Using 1-stage real ELPA solver
  Solving real symmetric generalised eigenvalue problem by standard ScaLAPACK.
  Using Cholesky factor for transformation
  Using 1-stage real ELPA solver
  Determining occupation numbers for Kohn-Sham eigenstates.
  | Chemical potential (Fermi level) in eV                 : -.21332593E+02
  | Error in electron count due to remaining E_F inaccuracy: 0.00000000E+00
  | Maximum occupation number of highest empty state:  0.00E+00

  Current spin moment of the entire structure :
  | N = N_up - N_down :    0.00
  | S                 :    0.00
  | J                 :    1.00

  Highest occupied state (VBM) at    -22.64383428 eV
  | Occupation number:      1.00000000
  | Spin channel:        2

  Lowest unoccupied state (CBM) at    -0.76196472 eV
  | Occupation number:      0.00000000
  | Spin channel:        1

  Overall HOMO-LUMO gap:     21.88186956 eV.

  Total energy components:
  | Sum of eigenvalues            :          -1.72858345 Ha         -47.03714894 eV
  | XC energy correction          :          -0.51835776 Ha         -14.10523239 eV
  | XC potential correction       :           0.66542165 Ha          18.10704450 eV
  | Free-atom electrostatic energy:           0.33974228 Ha           9.24485785 eV
  | Hartree energy correction     :           0.29469154 Ha           8.01896482 eV
  | van der Waals energy corr.    :           0.00000000 Ha           0.00000000 eV
  | Entropy correction            :           0.00000000 Ha           0.00000000 eV
  | ---------------------------
  | Total energy                  :          -0.94708574 Ha         -25.77151416 eV
  | Total energy, T -> 0          :          -0.94708574 Ha         -25.77151416 eV  <-- do not rely on this value for anything but (periodic) metals
  | Electronic free energy        :          -0.94708574 Ha         -25.77151416 eV

  Derived energy quantities:
  | Kinetic energy                :          -1.19099905 Ha         -32.40873300 eV
  | Electrostatic energy          :           0.76227107 Ha          20.74245123 eV
  | Energy correction for multipole
  | error in Hartree potential    :          -0.00014641 Ha          -0.00398394 eV
  | Sum of eigenvalues per atom                           :         -23.51857447 eV
  | Total energy (T->0) per atom                          :         -12.88575708 eV  <-- do not rely on this value for anything but (periodic) metals
  | Electronic free energy per atom                       :         -12.88575708 eV

  Self-consistency convergence accuracy:
  | Change of charge/spin density : 0.2203E+00 0.3246E+00
  | Change of sum of eigenvalues  : -.1459E+02 eV
  | Change of total energy        : -.8993E+01 eV

  End self-consistency iteration #     4       :  max(cpu_time)    wall_clock(cpu1)
  | Time for this iteration                    :        0.023 s           0.022 s
  | Charge density update                      :        0.007 s           0.005 s
  | Density mixing                             :        0.001 s           0.002 s
  | Hartree multipole update                   :        0.001 s           0.001 s
  | Hartree multipole summation                :        0.004 s           0.004 s
  | Integration                                :        0.008 s           0.008 s
  | Solution of K.-S. eqns.                    :        0.001 s           0.001 s
  | Total energy evaluation                    :        0.000 s           0.000 s
------------------------------------------------------------

------------------------------------------------------------
          Begin self-consistency iteration #    5

  Date     :  20220120, Time     :  152450.692
------------------------------------------------------------
  Evaluating new KS density.
  Integration grid: deviation in total charge (<rho> - N_e) =   4.172586E-07
  | <rho_up-rho_dn> = N_up-N_dn =     -1.3753; <|rho_up-rho_dn|> =      1.3753
  Pulay mixing of updated and previous charge densities.

  Evaluating partitioned Hartree potential by multipole expansion.
  | Analytical far-field extrapolation by fixed multipoles:
  | Hartree multipole sum: apparent total charge =   0.489588E-04
  Summing up the Hartree potential.
  Time summed over all CPUs for potential: real work        0.030 s, elapsed        0.030 s
  | RMS charge density error from multipole expansion :   0.397024E-01

  Integrating Hamiltonian matrix: batch-based integration.
  Time summed over all CPUs for integration: real work        0.054 s, elapsed        0.057 s

  Updating Kohn-Sham eigenvalues, eigenvectors, occupation numbers, and Fermi level.
  Solving generalized eigenproblem
  Solving real symmetric generalised eigenvalue problem by standard ScaLAPACK.
  Using Cholesky factor for transformation
  Using 1-stage real ELPA solver
  Solving real symmetric generalised eigenvalue problem by standard ScaLAPACK.
  Using Cholesky factor for transformation
  Using 1-stage real ELPA solver
  Determining occupation numbers for Kohn-Sham eigenstates.
  | Chemical potential (Fermi level) in eV                 : 0.24129874E+01
  | Error in electron count due to remaining E_F inaccuracy: 0.00000000E+00
  | Maximum occupation number of highest empty state:  0.00E+00

  Current spin moment of the entire structure :
  | N = N_up - N_down :    0.00
  | S                 :    0.00
  | J                 :    1.00

  Highest occupied state (VBM) at      2.14978746 eV
  | Occupation number:      1.00000000
  | Spin channel:        2
 * WARNING: The VBM is higher than the internal energy zero!

  Lowest unoccupied state (CBM) at     2.72958523 eV
  | Occupation number:      0.00000000
  | Spin channel:        1

  Overall HOMO-LUMO gap:      0.57979777 eV.

  Total energy components:
  | Sum of eigenvalues            :           0.15794539 Ha           4.29791270 eV
  | XC energy correction          :          -6.38165921 Ha        -173.65378251 eV
  | XC potential correction       :           8.29828205 Ha         225.80774356 eV
  | Free-atom electrostatic energy:           0.33974228 Ha           9.24485785 eV
  | Hartree energy correction     :         -17.43125959 Ha        -474.32870710 eV
  | van der Waals energy corr.    :           0.00000000 Ha           0.00000000 eV
  | Entropy correction            :           0.00000000 Ha           0.00000000 eV
  | ---------------------------
  | Total energy                  :         -15.01694908 Ha        -408.63197550 eV
  | Total energy, T -> 0          :         -15.01694908 Ha        -408.63197550 eV  <-- do not rely on this value for anything but (periodic) metals
  | Electronic free energy        :         -15.01694908 Ha        -408.63197550 eV

  Derived energy quantities:
  | Kinetic energy                :          -9.23025893 Ha        -251.16812485 eV
  | Electrostatic energy          :           0.59496906 Ha          16.18993186 eV
  | Energy correction for multipole
  | error in Hartree potential    :           0.00142752 Ha           0.03884485 eV
  | Sum of eigenvalues per atom                           :           2.14895635 eV
  | Total energy (T->0) per atom                          :        -204.31598775 eV  <-- do not rely on this value for anything but (periodic) metals
  | Electronic free energy per atom                       :        -204.31598775 eV

  Self-consistency convergence accuracy:
  | Change of charge/spin density : 0.8342E+00 0.1967E+00
  | Change of sum of eigenvalues  : 0.5134E+02 eV
  | Change of total energy        : -.3829E+03 eV

  End self-consistency iteration #     5       :  max(cpu_time)    wall_clock(cpu1)
  | Time for this iteration                    :        0.022 s           0.022 s
  | Charge density update                      :        0.006 s           0.005 s
  | Density mixing                             :        0.001 s           0.002 s
  | Hartree multipole update                   :        0.001 s           0.001 s
  | Hartree multipole summation                :        0.004 s           0.004 s
  | Integration                                :        0.007 s           0.007 s
  | Solution of K.-S. eqns.                    :        0.001 s           0.002 s
  | Total energy evaluation                    :        0.000 s           0.001 s
------------------------------------------------------------

------------------------------------------------------------
          Begin self-consistency iteration #    6

  Date     :  20220120, Time     :  152450.718
------------------------------------------------------------
  Evaluating new KS density.
  Integration grid: deviation in total charge (<rho> - N_e) =   2.939762E-08
  | <rho_up-rho_dn> = N_up-N_dn =     -0.2891; <|rho_up-rho_dn|> =      2.1896
  Pulay mixing of updated and previous charge densities.

  Evaluating partitioned Hartree potential by multipole expansion.
  | Analytical far-field extrapolation by fixed multipoles:
  | Hartree multipole sum: apparent total charge =   0.442850E-05
  Summing up the Hartree potential.
  Time summed over all CPUs for potential: real work        0.030 s, elapsed        0.030 s
  | RMS charge density error from multipole expansion :   0.184218E-01

  Integrating Hamiltonian matrix: batch-based integration.
  Time summed over all CPUs for integration: real work        0.059 s, elapsed        0.062 s

  Updating Kohn-Sham eigenvalues, eigenvectors, occupation numbers, and Fermi level.
  Solving generalized eigenproblem
  Solving real symmetric generalised eigenvalue problem by standard ScaLAPACK.
  Using Cholesky factor for transformation
  Using 1-stage real ELPA solver
  Solving real symmetric generalised eigenvalue problem by standard ScaLAPACK.
  Using Cholesky factor for transformation
  Using 1-stage real ELPA solver
  Determining occupation numbers for Kohn-Sham eigenstates.
  | Chemical potential (Fermi level) in eV                 : 0.73139140E+00
  | Error in electron count due to remaining E_F inaccuracy: 0.00000000E+00
  | Maximum occupation number of highest empty state:  0.00E+00

  Current spin moment of the entire structure :
  | N = N_up - N_down :    0.00
  | S                 :    0.00
  | J                 :    1.00

  Highest occupied state (VBM) at      0.33225657 eV
  | Occupation number:      1.00000000
  | Spin channel:        1
 * WARNING: The VBM is higher than the internal energy zero!

  Lowest unoccupied state (CBM) at     1.22882713 eV
  | Occupation number:      0.00000000
  | Spin channel:        2

  Overall HOMO-LUMO gap:      0.89657056 eV.

  Total energy components:
  | Sum of eigenvalues            :           0.02375235 Ha           0.64633430 eV
  | XC energy correction          :          -2.69051354 Ha         -73.21259838 eV
  | XC potential correction       :           3.47892153 Ha          94.66627151 eV
  | Free-atom electrostatic energy:           0.33974228 Ha           9.24485785 eV
  | Hartree energy correction     :          -4.64078077 Ha        -126.28206987 eV
  | van der Waals energy corr.    :           0.00000000 Ha           0.00000000 eV
  | Entropy correction            :           0.00000000 Ha           0.00000000 eV
  | ---------------------------
  | Total energy                  :          -3.48887814 Ha         -94.93720459 eV
  | Total energy, T -> 0          :          -3.48887814 Ha         -94.93720459 eV  <-- do not rely on this value for anything but (periodic) metals
  | Electronic free energy        :          -3.48887814 Ha         -94.93720459 eV

  Derived energy quantities:
  | Kinetic energy                :           2.82029848 Ha          76.74422625 eV
  | Electrostatic energy          :          -3.61866308 Ha         -98.46883246 eV
  | Energy correction for multipole
  | error in Hartree potential    :           0.00078845 Ha           0.02145478 eV
  | Sum of eigenvalues per atom                           :           0.32316715 eV
  | Total energy (T->0) per atom                          :         -47.46860229 eV  <-- do not rely on this value for anything but (periodic) metals
  | Electronic free energy per atom                       :         -47.46860229 eV

  Self-consistency convergence accuracy:
  | Change of charge/spin density : 0.4164E+01 0.1016E+01
  | Change of sum of eigenvalues  : -.3652E+01 eV
  | Change of total energy        : 0.3137E+03 eV

  End self-consistency iteration #     6       :  max(cpu_time)    wall_clock(cpu1)
  | Time for this iteration                    :        0.023 s           0.023 s
  | Charge density update                      :        0.006 s           0.005 s
  | Density mixing                             :        0.001 s           0.002 s
  | Hartree multipole update                   :        0.001 s           0.001 s
  | Hartree multipole summation                :        0.004 s           0.004 s
  | Integration                                :        0.008 s           0.008 s
  | Solution of K.-S. eqns.                    :        0.001 s           0.002 s
  | Total energy evaluation                    :        0.000 s           0.000 s
------------------------------------------------------------

------------------------------------------------------------
          Begin self-consistency iteration #    7

  Date     :  20220120, Time     :  152450.743
------------------------------------------------------------
  Evaluating new KS density.
  Integration grid: deviation in total charge (<rho> - N_e) =   3.579449E-08
  | <rho_up-rho_dn> = N_up-N_dn =      0.0867; <|rho_up-rho_dn|> =      0.9483
  Pulay mixing of updated and previous charge densities.

  Evaluating partitioned Hartree potential by multipole expansion.
  | Analytical far-field extrapolation by fixed multipoles:
  | Hartree multipole sum: apparent total charge =  -0.109233E-04
  Summing up the Hartree potential.
  Time summed over all CPUs for potential: real work        0.030 s, elapsed        0.030 s
  | RMS charge density error from multipole expansion :   0.156717E-01

  Integrating Hamiltonian matrix: batch-based integration.
  Time summed over all CPUs for integration: real work        0.059 s, elapsed        0.062 s

  Updating Kohn-Sham eigenvalues, eigenvectors, occupation numbers, and Fermi level.
  Solving generalized eigenproblem
  Solving real symmetric generalised eigenvalue problem by standard ScaLAPACK.
  Using Cholesky factor for transformation
  Using 1-stage real ELPA solver
  Solving real symmetric generalised eigenvalue problem by standard ScaLAPACK.
  Using Cholesky factor for transformation
  Using 1-stage real ELPA solver
  Determining occupation numbers for Kohn-Sham eigenstates.
  | Chemical potential (Fermi level) in eV                 : 0.73740134E+00
  | Error in electron count due to remaining E_F inaccuracy: 0.00000000E+00
  | Maximum occupation number of highest empty state:  0.00E+00

  Current spin moment of the entire structure :
  | N = N_up - N_down :    0.00
  | S                 :    0.00
  | J                 :    1.00

  Highest occupied state (VBM) at     -0.01973940 eV
  | Occupation number:      1.00000000
  | Spin channel:        1

  Lowest unoccupied state (CBM) at     0.91103677 eV
  | Occupation number:      0.00000000
  | Spin channel:        2

  Overall HOMO-LUMO gap:      0.93077617 eV.

  Total energy components:
  | Sum of eigenvalues            :          -0.00790158 Ha          -0.21501300 eV
  | XC energy correction          :          -2.26984265 Ha         -61.76556101 eV
  | XC potential correction       :           2.93175659 Ha          79.77715585 eV
  | Free-atom electrostatic energy:           0.33974228 Ha           9.24485785 eV
  | Hartree energy correction     :          -3.50186977 Ha         -95.29072487 eV
  | van der Waals energy corr.    :           0.00000000 Ha           0.00000000 eV
  | Entropy correction            :           0.00000000 Ha           0.00000000 eV
  | ---------------------------
  | Total energy                  :          -2.50811513 Ha         -68.24928518 eV
  | Total energy, T -> 0          :          -2.50811513 Ha         -68.24928518 eV  <-- do not rely on this value for anything but (periodic) metals
  | Electronic free energy        :          -2.50811513 Ha         -68.24928518 eV

  Derived energy quantities:
  | Kinetic energy                :           3.35515485 Ha          91.29840865 eV
  | Electrostatic energy          :          -3.59342733 Ha         -97.78213282 eV
  | Energy correction for multipole
  | error in Hartree potential    :           0.00068297 Ha           0.01858450 eV
  | Sum of eigenvalues per atom                           :          -0.10750650 eV
  | Total energy (T->0) per atom                          :         -34.12464259 eV  <-- do not rely on this value for anything but (periodic) metals
  | Electronic free energy per atom                       :         -34.12464259 eV

  Self-consistency convergence accuracy:
  | Change of charge/spin density : 0.2054E+01 0.4057E+00
  | Change of sum of eigenvalues  : -.8613E+00 eV
  | Change of total energy        : 0.2669E+02 eV

  End self-consistency iteration #     7       :  max(cpu_time)    wall_clock(cpu1)
  | Time for this iteration                    :        0.023 s           0.022 s
  | Charge density update                      :        0.006 s           0.005 s
  | Density mixing                             :        0.001 s           0.001 s
  | Hartree multipole update                   :        0.001 s           0.002 s
  | Hartree multipole summation                :        0.004 s           0.004 s
  | Integration                                :        0.008 s           0.008 s
  | Solution of K.-S. eqns.                    :        0.001 s           0.001 s
  | Total energy evaluation                    :        0.000 s           0.001 s
------------------------------------------------------------

------------------------------------------------------------
          Begin self-consistency iteration #    8

  Date     :  20220120, Time     :  152450.769
------------------------------------------------------------
  Evaluating new KS density.
  Integration grid: deviation in total charge (<rho> - N_e) =  -3.526660E-08
  | <rho_up-rho_dn> = N_up-N_dn =      0.4806; <|rho_up-rho_dn|> =      1.0125
  Pulay mixing of updated and previous charge densities.

  Evaluating partitioned Hartree potential by multipole expansion.
  | Analytical far-field extrapolation by fixed multipoles:
  | Hartree multipole sum: apparent total charge =  -0.290003E-04
  Summing up the Hartree potential.
  Time summed over all CPUs for potential: real work        0.030 s, elapsed        0.030 s
  | RMS charge density error from multipole expansion :   0.360745E-02

  Integrating Hamiltonian matrix: batch-based integration.
  Time summed over all CPUs for integration: real work        0.065 s, elapsed        0.068 s

  Updating Kohn-Sham eigenvalues, eigenvectors, occupation numbers, and Fermi level.
  Solving generalized eigenproblem
  Solving real symmetric generalised eigenvalue problem by standard ScaLAPACK.
  Using Cholesky factor for transformation
  Using 1-stage real ELPA solver
  Solving real symmetric generalised eigenvalue problem by standard ScaLAPACK.
  Using Cholesky factor for transformation
  Using 1-stage real ELPA solver
  Determining occupation numbers for Kohn-Sham eigenstates.
  | Chemical potential (Fermi level) in eV                 : -.13581930E+02
  | Error in electron count due to remaining E_F inaccuracy: 0.00000000E+00
  | Maximum occupation number of highest empty state:  0.00E+00

  Current spin moment of the entire structure :
  | N = N_up - N_down :    0.00
  | S                 :    0.00
  | J                 :    1.00

  Highest occupied state (VBM) at    -15.84890857 eV
  | Occupation number:      1.00000000
  | Spin channel:        2

  Lowest unoccupied state (CBM) at    -0.54097592 eV
  | Occupation number:      0.00000000
  | Spin channel:        1

  Overall HOMO-LUMO gap:     15.30793265 eV.

  Total energy components:
  | Sum of eigenvalues            :          -1.17876893 Ha         -32.07593454 eV
  | XC energy correction          :          -0.78752510 Ha         -21.42964824 eV
  | XC potential correction       :           1.00831955 Ha          27.43777085 eV
  | Free-atom electrostatic energy:           0.33974228 Ha           9.24485785 eV
  | Hartree energy correction     :          -0.27179070 Ha          -7.39580127 eV
  | van der Waals energy corr.    :           0.00000000 Ha           0.00000000 eV
  | Entropy correction            :           0.00000000 Ha           0.00000000 eV
  | ---------------------------
  | Total energy                  :          -0.89002290 Ha         -24.21875535 eV
  | Total energy, T -> 0          :          -0.89002290 Ha         -24.21875535 eV  <-- do not rely on this value for anything but (periodic) metals
  | Electronic free energy        :          -0.89002290 Ha         -24.21875535 eV

  Derived energy quantities:
  | Kinetic energy                :           1.73515998 Ha          47.21610546 eV
  | Electrostatic energy          :          -1.83765778 Ha         -50.00521256 eV
  | Energy correction for multipole
  | error in Hartree potential    :           0.00016762 Ha           0.00456127 eV
  | Sum of eigenvalues per atom                           :         -16.03796727 eV
  | Total energy (T->0) per atom                          :         -12.10937767 eV  <-- do not rely on this value for anything but (periodic) metals
  | Electronic free energy per atom                       :         -12.10937767 eV

  Self-consistency convergence accuracy:
  | Change of charge/spin density : 0.1774E+01 0.3053E+00
  | Change of sum of eigenvalues  : -.3186E+02 eV
  | Change of total energy        : 0.4403E+02 eV

  End self-consistency iteration #     8       :  max(cpu_time)    wall_clock(cpu1)
  | Time for this iteration                    :        0.024 s           0.023 s
  | Charge density update                      :        0.006 s           0.005 s
  | Density mixing                             :        0.002 s           0.001 s
  | Hartree multipole update                   :        0.001 s           0.002 s
  | Hartree multipole summation                :        0.004 s           0.004 s
  | Integration                                :        0.009 s           0.009 s
  | Solution of K.-S. eqns.                    :        0.001 s           0.001 s
  | Total energy evaluation                    :        0.000 s           0.001 s
------------------------------------------------------------

------------------------------------------------------------
          Begin self-consistency iteration #    9

  Date     :  20220120, Time     :  152450.797
------------------------------------------------------------
  Evaluating new KS density.
  Integration grid: deviation in total charge (<rho> - N_e) =   6.813883E-08
  | <rho_up-rho_dn> = N_up-N_dn =     -0.0098; <|rho_up-rho_dn|> =      0.1479
  Pulay mixing of updated and previous charge densities.

  Evaluating partitioned Hartree potential by multipole expansion.
  | Analytical far-field extrapolation by fixed multipoles:
  | Hartree multipole sum: apparent total charge =  -0.320280E-04
  Summing up the Hartree potential.
  Time summed over all CPUs for potential: real work        0.030 s, elapsed        0.030 s
  | RMS charge density error from multipole expansion :   0.303120E-02

  Integrating Hamiltonian matrix: batch-based integration.
  Time summed over all CPUs for integration: real work        0.065 s, elapsed        0.068 s

  Updating Kohn-Sham eigenvalues, eigenvectors, occupation numbers, and Fermi level.
  Solving generalized eigenproblem
  Solving real symmetric generalised eigenvalue problem by standard ScaLAPACK.
  Using Cholesky factor for transformation
  Using 1-stage real ELPA solver
  Solving real symmetric generalised eigenvalue problem by standard ScaLAPACK.
  Using Cholesky factor for transformation
  Using 1-stage real ELPA solver
  Determining occupation numbers for Kohn-Sham eigenstates.
  | Chemical potential (Fermi level) in eV                 : -.14351638E+02
  | Error in electron count due to remaining E_F inaccuracy: 0.00000000E+00
  | Maximum occupation number of highest empty state:  0.00E+00

  Current spin moment of the entire structure :
  | N = N_up - N_down :    0.00
  | S                 :    0.00
  | J                 :    1.00

  Highest occupied state (VBM) at    -16.67951922 eV
  | Occupation number:      1.00000000
  | Spin channel:        2

  Lowest unoccupied state (CBM) at    -0.51587313 eV
  | Occupation number:      0.00000000
  | Spin channel:        1

  Overall HOMO-LUMO gap:     16.16364609 eV.

  Total energy components:
  | Sum of eigenvalues            :          -1.23915379 Ha         -33.71909010 eV
  | XC energy correction          :          -0.74675925 Ha         -20.32035298 eV
  | XC potential correction       :           0.95563845 Ha          26.00424540 eV
  | Free-atom electrostatic energy:           0.33974228 Ha           9.24485785 eV
  | Hartree energy correction     :          -0.20950750 Ha          -5.70098910 eV
  | van der Waals energy corr.    :           0.00000000 Ha           0.00000000 eV
  | Entropy correction            :           0.00000000 Ha           0.00000000 eV
  | ---------------------------
  | Total energy                  :          -0.90003980 Ha         -24.49132894 eV
  | Total energy, T -> 0          :          -0.90003980 Ha         -24.49132894 eV  <-- do not rely on this value for anything but (periodic) metals
  | Electronic free energy        :          -0.90003980 Ha         -24.49132894 eV

  Derived energy quantities:
  | Kinetic energy                :           1.53793153 Ha          41.84924620 eV
  | Electrostatic energy          :          -1.69121208 Ha         -46.02022215 eV
  | Energy correction for multipole
  | error in Hartree potential    :           0.00016164 Ha           0.00439833 eV
  | Sum of eigenvalues per atom                           :         -16.85954505 eV
  | Total energy (T->0) per atom                          :         -12.24566447 eV  <-- do not rely on this value for anything but (periodic) metals
  | Electronic free energy per atom                       :         -12.24566447 eV

  Self-consistency convergence accuracy:
  | Change of charge/spin density : 0.8564E-01 0.7561E-01
  | Change of sum of eigenvalues  : -.1643E+01 eV
  | Change of total energy        : -.2726E+00 eV

  End self-consistency iteration #     9       :  max(cpu_time)    wall_clock(cpu1)
  | Time for this iteration                    :        0.025 s           0.023 s
  | Charge density update                      :        0.007 s           0.005 s
  | Density mixing                             :        0.002 s           0.001 s
  | Hartree multipole update                   :        0.001 s           0.002 s
  | Hartree multipole summation                :        0.004 s           0.004 s
  | Integration                                :        0.009 s           0.008 s
  | Solution of K.-S. eqns.                    :        0.001 s           0.002 s
  | Total energy evaluation                    :        0.000 s           0.000 s
------------------------------------------------------------

------------------------------------------------------------
          Begin self-consistency iteration #   10

  Date     :  20220120, Time     :  152450.821
------------------------------------------------------------
  Evaluating new KS density.
  Integration grid: deviation in total charge (<rho> - N_e) =   5.893227E-08
  | <rho_up-rho_dn> = N_up-N_dn =     -0.0371; <|rho_up-rho_dn|> =      0.0915
  Pulay mixing of updated and previous charge densities.

  Evaluating partitioned Hartree potential by multipole expansion.
  | Analytical far-field extrapolation by fixed multipoles:
  | Hartree multipole sum: apparent total charge =  -0.338817E-04
  Summing up the Hartree potential.
  Time summed over all CPUs for potential: real work        0.030 s, elapsed        0.030 s
  | RMS charge density error from multipole expansion :   0.330038E-02

  Integrating Hamiltonian matrix: batch-based integration.
  Time summed over all CPUs for integration: real work        0.065 s, elapsed        0.068 s

  Updating Kohn-Sham eigenvalues, eigenvectors, occupation numbers, and Fermi level.
  Solving generalized eigenproblem
  Solving real symmetric generalised eigenvalue problem by standard ScaLAPACK.
  Using Cholesky factor for transformation
  Using 1-stage real ELPA solver
  Solving real symmetric generalised eigenvalue problem by standard ScaLAPACK.
  Using Cholesky factor for transformation
  Using 1-stage real ELPA solver
  Determining occupation numbers for Kohn-Sham eigenstates.
  | Chemical potential (Fermi level) in eV                 : -.12991144E+02
  | Error in electron count due to remaining E_F inaccuracy: 0.00000000E+00
  | Maximum occupation number of highest empty state:  0.00E+00

  Current spin moment of the entire structure :
  | N = N_up - N_down :    0.00
  | S                 :    0.00
  | J                 :    1.00

  Highest occupied state (VBM) at    -15.55720516 eV
  | Occupation number:      1.00000000
  | Spin channel:        2

  Lowest unoccupied state (CBM) at    -0.27160186 eV
  | Occupation number:      0.00000000
  | Spin channel:        2

  Overall HOMO-LUMO gap:     15.28560330 eV.

  Total energy components:
  | Sum of eigenvalues            :          -1.14555098 Ha         -31.17202809 eV
  | XC energy correction          :          -0.78555157 Ha         -21.37594592 eV
  | XC potential correction       :           1.00609573 Ha          27.37725766 eV
  | Free-atom electrostatic energy:           0.33974228 Ha           9.24485785 eV
  | Hartree energy correction     :          -0.30500569 Ha          -8.29962709 eV
  | van der Waals energy corr.    :           0.00000000 Ha           0.00000000 eV
  | Entropy correction            :           0.00000000 Ha           0.00000000 eV
  | ---------------------------
  | Total energy                  :          -0.89027023 Ha         -24.22548558 eV
  | Total energy, T -> 0          :          -0.89027023 Ha         -24.22548558 eV  <-- do not rely on this value for anything but (periodic) metals
  | Electronic free energy        :          -0.89027023 Ha         -24.22548558 eV

  Derived energy quantities:
  | Kinetic energy                :           1.65520728 Ha          45.04048167 eV
  | Electrostatic energy          :          -1.75992594 Ha         -47.89002132 eV
  | Energy correction for multipole
  | error in Hartree potential    :           0.00021789 Ha           0.00592896 eV
  | Sum of eigenvalues per atom                           :         -15.58601404 eV
  | Total energy (T->0) per atom                          :         -12.11274279 eV  <-- do not rely on this value for anything but (periodic) metals
  | Electronic free energy per atom                       :         -12.11274279 eV

  Self-consistency convergence accuracy:
  | Change of charge/spin density : 0.8612E-01 0.5147E-01
  | Change of sum of eigenvalues  : 0.2547E+01 eV
  | Change of total energy        : 0.2658E+00 eV

  End self-consistency iteration #    10       :  max(cpu_time)    wall_clock(cpu1)
  | Time for this iteration                    :        0.024 s           0.023 s
  | Charge density update                      :        0.006 s           0.005 s
  | Density mixing                             :        0.002 s           0.002 s
  | Hartree multipole update                   :        0.001 s           0.001 s
  | Hartree multipole summation                :        0.004 s           0.004 s
  | Integration                                :        0.009 s           0.009 s
  | Solution of K.-S. eqns.                    :        0.001 s           0.001 s
  | Total energy evaluation                    :        0.000 s           0.000 s
------------------------------------------------------------

------------------------------------------------------------
          Begin self-consistency iteration #   11

  Date     :  20220120, Time     :  152450.848
------------------------------------------------------------
  Evaluating new KS density.
  Integration grid: deviation in total charge (<rho> - N_e) =   1.864554E-08
  | <rho_up-rho_dn> = N_up-N_dn =     -0.0036; <|rho_up-rho_dn|> =      0.0327
  Pulay mixing of updated and previous charge densities.

  Evaluating partitioned Hartree potential by multipole expansion.
  | Analytical far-field extrapolation by fixed multipoles:
  | Hartree multipole sum: apparent total charge =  -0.317929E-04
  Summing up the Hartree potential.
  Time summed over all CPUs for potential: real work        0.030 s, elapsed        0.030 s
  | RMS charge density error from multipole expansion :   0.393067E-02

  Integrating Hamiltonian matrix: batch-based integration.
  Time summed over all CPUs for integration: real work        0.066 s, elapsed        0.068 s

  Updating Kohn-Sham eigenvalues, eigenvectors, occupation numbers, and Fermi level.
  Solving generalized eigenproblem
  Solving real symmetric generalised eigenvalue problem by standard ScaLAPACK.
  Using Cholesky factor for transformation
  Using 1-stage real ELPA solver
  Solving real symmetric generalised eigenvalue problem by standard ScaLAPACK.
  Using Cholesky factor for transformation
  Using 1-stage real ELPA solver
  Determining occupation numbers for Kohn-Sham eigenstates.
  | Chemical potential (Fermi level) in eV                 : -.11391501E+02
  | Error in electron count due to remaining E_F inaccuracy: 0.00000000E+00
  | Maximum occupation number of highest empty state:  0.00E+00

  Current spin moment of the entire structure :
  | N = N_up - N_down :    0.00
  | S                 :    0.00
  | J                 :    1.00

  Highest occupied state (VBM) at    -13.92645606 eV
  | Occupation number:      1.00000000
  | Spin channel:        2

  Lowest unoccupied state (CBM) at    -0.04183239 eV
  | Occupation number:      0.00000000
  | Spin channel:        1

  Overall HOMO-LUMO gap:     13.88462367 eV.

  Total energy components:
  | Sum of eigenvalues            :          -1.02394882 Ha         -27.86306493 eV
  | XC energy correction          :          -0.84819928 Ha         -23.08067662 eV
  | XC potential correction       :           1.08707688 Ha          29.58086686 eV
  | Free-atom electrostatic energy:           0.33974228 Ha           9.24485785 eV
  | Hartree energy correction     :          -0.43851682 Ha         -11.93264977 eV
  | van der Waals energy corr.    :           0.00000000 Ha           0.00000000 eV
  | Entropy correction            :           0.00000000 Ha           0.00000000 eV
  | ---------------------------
  | Total energy                  :          -0.88384575 Ha         -24.05066661 eV
  | Total energy, T -> 0          :          -0.88384575 Ha         -24.05066661 eV  <-- do not rely on this value for anything but (periodic) metals
  | Electronic free energy        :          -0.88384575 Ha         -24.05066661 eV

  Derived energy quantities:
  | Kinetic energy                :           1.88067163 Ha          51.17567882 eV
  | Electrostatic energy          :          -1.91631811 Ha         -52.14566881 eV
  | Energy correction for multipole
  | error in Hartree potential    :           0.00026660 Ha           0.00725460 eV
  | Sum of eigenvalues per atom                           :         -13.93153247 eV
[...]
  | Change of sum of eigenvalues  : -.5668E-03 eV
  | Change of total energy        : -.1227E-07 eV

  End self-consistency iteration #    23       :  max(cpu_time)    wall_clock(cpu1)
  | Time for this iteration                    :        0.024 s           0.023 s
  | Charge density update                      :        0.006 s           0.005 s
  | Density mixing                             :        0.002 s           0.002 s
  | Hartree multipole update                   :        0.001 s           0.001 s
  | Hartree multipole summation                :        0.004 s           0.004 s
  | Integration                                :        0.009 s           0.009 s
  | Solution of K.-S. eqns.                    :        0.001 s           0.001 s
  | Total energy evaluation                    :        0.000 s           0.001 s
------------------------------------------------------------

------------------------------------------------------------
          Begin self-consistency iteration #   24

  Date     :  20220120, Time     :  152451.183
------------------------------------------------------------
  Evaluating new KS density.
  Integration grid: deviation in total charge (<rho> - N_e) =  -2.684519E-12
  | <rho_up-rho_dn> = N_up-N_dn =      0.0000; <|rho_up-rho_dn|> =      0.0000
  Pulay mixing of updated and previous charge densities.

  Evaluating partitioned Hartree potential by multipole expansion.
  | Analytical far-field extrapolation by fixed multipoles:
  | Hartree multipole sum: apparent total charge =   0.251332E-05
  Summing up the Hartree potential.
  Time summed over all CPUs for potential: real work        0.030 s, elapsed        0.030 s
  | RMS charge density error from multipole expansion :   0.339890E-02

  Integrating Hamiltonian matrix: batch-based integration.
  Time summed over all CPUs for integration: real work        0.065 s, elapsed        0.068 s

  Updating Kohn-Sham eigenvalues, eigenvectors, occupation numbers, and Fermi level.
  Solving generalized eigenproblem
  Solving real symmetric generalised eigenvalue problem by standard ScaLAPACK.
  Using Cholesky factor for transformation
  Using 1-stage real ELPA solver
  Solving real symmetric generalised eigenvalue problem by standard ScaLAPACK.
  Using Cholesky factor for transformation
  Using 1-stage real ELPA solver
  Determining occupation numbers for Kohn-Sham eigenstates.
  | Chemical potential (Fermi level) in eV                 : -.11075676E+02
  | Error in electron count due to remaining E_F inaccuracy: 0.00000000E+00
  | Maximum occupation number of highest empty state:  0.00E+00

  Current spin moment of the entire structure :
  | N = N_up - N_down :    0.00
  | S                 :    0.00
  | J                 :    1.00

  Highest occupied state (VBM) at    -12.84418464 eV
  | Occupation number:      1.00000000
  | Spin channel:        2

  Lowest unoccupied state (CBM) at     1.24091836 eV
  | Occupation number:      0.00000000
  | Spin channel:        1

  Overall HOMO-LUMO gap:     14.08510301 eV.

  Total energy components:
  | Sum of eigenvalues            :          -0.94403023 Ha         -25.68836946 eV
  | XC energy correction          :          -0.85343554 Ha         -23.22316261 eV
  | XC potential correction       :           1.09475090 Ha          29.78968767 eV
  | Free-atom electrostatic energy:           0.33974228 Ha           9.24485785 eV
  | Hartree energy correction     :          -0.52102842 Ha         -14.17790464 eV
  | van der Waals energy corr.    :           0.00000000 Ha           0.00000000 eV
  | Entropy correction            :           0.00000000 Ha           0.00000000 eV
  | ---------------------------
  | Total energy                  :          -0.88400100 Ha         -24.05489119 eV
  | Total energy, T -> 0          :          -0.88400100 Ha         -24.05489119 eV  <-- do not rely on this value for anything but (periodic) metals
  | Electronic free energy        :          -0.88400100 Ha         -24.05489119 eV

  Derived energy quantities:
  | Kinetic energy                :           1.74030839 Ha          47.35620084 eV
  | Electrostatic energy          :          -1.77087386 Ha         -48.18792942 eV
  | Energy correction for multipole
  | error in Hartree potential    :           0.00029184 Ha           0.00794131 eV
  | Sum of eigenvalues per atom                           :         -12.84418473 eV
  | Total energy (T->0) per atom                          :         -12.02744560 eV  <-- do not rely on this value for anything but (periodic) metals
  | Electronic free energy per atom                       :         -12.02744560 eV

  Self-consistency convergence accuracy:
  | Change of charge/spin density : 0.5564E-06 0.8255E-06
  | Change of sum of eigenvalues  : 0.1673E-04 eV
  | Change of total energy        : -.1036E-07 eV

  End self-consistency iteration #    24       :  max(cpu_time)    wall_clock(cpu1)
  | Time for this iteration                    :        0.024 s           0.023 s
  | Charge density update                      :        0.006 s           0.005 s
  | Density mixing                             :        0.002 s           0.001 s
  | Hartree multipole update                   :        0.001 s           0.002 s
  | Hartree multipole summation                :        0.004 s           0.004 s
  | Integration                                :        0.009 s           0.008 s
  | Solution of K.-S. eqns.                    :        0.001 s           0.002 s
  | Total energy evaluation                    :        0.000 s           0.001 s
------------------------------------------------------------

------------------------------------------------------------
          Begin self-consistency iteration #   25

  Date     :  20220120, Time     :  152451.208
------------------------------------------------------------
  Evaluating new KS density.
  Integration grid: deviation in total charge (<rho> - N_e) =  -2.738698E-12
  | <rho_up-rho_dn> = N_up-N_dn =     -0.0000; <|rho_up-rho_dn|> =      0.0000
  Pulay mixing of updated and previous charge densities.

  Evaluating partitioned Hartree potential by multipole expansion.
  | Analytical far-field extrapolation by fixed multipoles:
  | Hartree multipole sum: apparent total charge =   0.251327E-05
  Summing up the Hartree potential.
  Time summed over all CPUs for potential: real work        0.030 s, elapsed        0.030 s
  | RMS charge density error from multipole expansion :   0.339890E-02

  Integrating Hamiltonian matrix: batch-based integration.
  Time summed over all CPUs for integration: real work        0.065 s, elapsed        0.068 s

  Updating Kohn-Sham eigenvalues, eigenvectors, occupation numbers, and Fermi level.
  Solving generalized eigenproblem
  Solving real symmetric generalised eigenvalue problem by standard ScaLAPACK.
  Using Cholesky factor for transformation
  Using 1-stage real ELPA solver
  Solving real symmetric generalised eigenvalue problem by standard ScaLAPACK.
  Using Cholesky factor for transformation
  Using 1-stage real ELPA solver
  Determining occupation numbers for Kohn-Sham eigenstates.
  | Chemical potential (Fermi level) in eV                 : -.11075500E+02
  | Error in electron count due to remaining E_F inaccuracy: 0.00000000E+00
  | Maximum occupation number of highest empty state:  0.00E+00

  Current spin moment of the entire structure :
  | N = N_up - N_down :    0.00
  | S                 :    0.00
  | J                 :    1.00

  Highest occupied state (VBM) at    -12.84418453 eV
  | Occupation number:      1.00000000
  | Spin channel:        2

  Lowest unoccupied state (CBM) at     1.24094936 eV
  | Occupation number:      0.00000000
  | Spin channel:        2

  Overall HOMO-LUMO gap:     14.08513388 eV.

  Total energy components:
  | Sum of eigenvalues            :          -0.94403022 Ha         -25.68836924 eV
  | XC energy correction          :          -0.85343555 Ha         -23.22316288 eV
  | XC potential correction       :           1.09475092 Ha          29.78968823 eV
  | Free-atom electrostatic energy:           0.33974228 Ha           9.24485785 eV
  | Hartree energy correction     :          -0.52102844 Ha         -14.17790515 eV
  | van der Waals energy corr.    :           0.00000000 Ha           0.00000000 eV
  | Entropy correction            :           0.00000000 Ha           0.00000000 eV
  | ---------------------------
  | Total energy                  :          -0.88400100 Ha         -24.05489119 eV
  | Total energy, T -> 0          :          -0.88400100 Ha         -24.05489119 eV  <-- do not rely on this value for anything but (periodic) metals
  | Electronic free energy        :          -0.88400100 Ha         -24.05489119 eV

  Derived energy quantities:
  | Kinetic energy                :           1.74030822 Ha          47.35619618 eV
  | Electrostatic energy          :          -1.77087368 Ha         -48.18792449 eV
  | Energy correction for multipole
  | error in Hartree potential    :           0.00029184 Ha           0.00794133 eV
  | Sum of eigenvalues per atom                           :         -12.84418462 eV
  | Total energy (T->0) per atom                          :         -12.02744560 eV  <-- do not rely on this value for anything but (periodic) metals
  | Electronic free energy per atom                       :         -12.02744560 eV

  Self-consistency convergence accuracy:
  | Change of charge/spin density : 0.2703E-06 0.5172E-07
  | Change of sum of eigenvalues  : 0.2124E-06 eV
  | Change of total energy        : -.3130E-09 eV

  Writing Kohn-Sham eigenvalues.

  Spin-up eigenvalues:

  State    Occupation    Eigenvalue [Ha]    Eigenvalue [eV]
      1       1.00000          -0.472015          -12.84418
      2       0.00000           0.045604            1.24096
      3       0.00000           0.054157            1.47368
      4       0.00000           0.228840            6.22705
      5       0.00000           0.343408            9.34460
      6       0.00000           0.361420            9.83473
      7       0.00000           0.361420            9.83473
      8       0.00000           0.747559           20.34211
      9       0.00000           0.747559           20.34211
     10       0.00000           0.767206           20.87674
     11       0.00000           0.827811           22.52589

  Spin-down eigenvalues:

  State    Occupation    Eigenvalue [Ha]    Eigenvalue [eV]
      1       1.00000          -0.472015          -12.84418
      2       0.00000           0.045604            1.24095
      3       0.00000           0.054157            1.47368
      4       0.00000           0.228840            6.22705
      5       0.00000           0.343407            9.34459
      6       0.00000           0.361420            9.83473
      7       0.00000           0.361420            9.83473
      8       0.00000           0.747559           20.34211
      9       0.00000           0.747559           20.34211
     10       0.00000           0.767206           20.87674
     11       0.00000           0.827811           22.52589

  Current spin moment of the entire structure :
  | N = N_up - N_down :    0.00
  | S                 :    0.00
  | J                 :    1.00

  Highest occupied state (VBM) at    -12.84418453 eV
  | Occupation number:      1.00000000
  | Spin channel:        2

  Lowest unoccupied state (CBM) at     1.24094936 eV
  | Occupation number:      0.00000000
  | Spin channel:        2

  Overall HOMO-LUMO gap:     14.08513388 eV.

  Self-consistency cycle converged.

  End self-consistency iteration #    25       :  max(cpu_time)    wall_clock(cpu1)
  | Time for this iteration                    :        0.024 s           0.024 s
  | Charge density update                      :        0.006 s           0.005 s
  | Density mixing                             :        0.002 s           0.002 s
  | Hartree multipole update                   :        0.001 s           0.001 s
  | Hartree multipole summation                :        0.004 s           0.004 s
  | Integration                                :        0.009 s           0.009 s
  | Solution of K.-S. eqns.                    :        0.001 s           0.001 s
  | Total energy evaluation                    :        0.000 s           0.000 s
------------------------------------------------------------
  Obtaining max. number of non-zero basis functions in each batch .
  Evaluating KS electron density on previously omitted grid points.
  Evaluating non-empirical van der Waals correction (Tkatchenko/Scheffler 2009).
  Performing Hirshfeld analysis of fragment charges and moments.
  ----------------------------------------------------------------------
  | Atom     1: H
  |   Hirshfeld charge        :     -0.00000067
  |   Free atom volume        :     10.31539447
  |   Hirshfeld volume        :      3.44430293
  |   Hirshfeld spin moment   :     -0.00000004
  |   Hirshfeld dipole vector :      0.00000000      -0.00000000      -0.05293230
  |   Hirshfeld dipole moment :      0.05293230
  |   Hirshfeld second moments:      0.18041051      -0.00000000       0.00000000
  |                                 -0.00000000       0.18041051      -0.00000000
  |                                  0.00000000      -0.00000000       0.17376198
  ----------------------------------------------------------------------
  | Atom     2: H
  |   Hirshfeld charge        :     -0.00000067
  |   Free atom volume        :     10.31539447
  |   Hirshfeld volume        :      3.44430293
  |   Hirshfeld spin moment   :     -0.00000004
  |   Hirshfeld dipole vector :      0.00000000      -0.00000000       0.05293230
  |   Hirshfeld dipole moment :      0.05293230
  |   Hirshfeld second moments:      0.18041051      -0.00000000       0.00000000
  |                                 -0.00000000       0.18041051      -0.00000000
  |                                  0.00000000      -0.00000000       0.17376198
  ----------------------------------------------------------------------


  Total energy components:
  | Sum of eigenvalues            :          -0.94403022 Ha         -25.68836924 eV
  | XC energy correction          :          -0.85343555 Ha         -23.22316288 eV
  | XC potential correction       :           1.09475092 Ha          29.78968823 eV
  | Free-atom electrostatic energy:           0.33974228 Ha           9.24485785 eV
  | Hartree energy correction     :          -0.52102844 Ha         -14.17790515 eV
  | van der Waals energy corr.    :          -0.00000044 Ha          -0.00001187 eV
  | Entropy correction            :           0.00000000 Ha           0.00000000 eV
  | ---------------------------
  | Total energy                  :          -0.88400144 Ha         -24.05490306 eV
  | Total energy, T -> 0          :          -0.88400144 Ha         -24.05490306 eV  <-- do not rely on this value for anything but (periodic) metals
  | Electronic free energy        :          -0.88400144 Ha         -24.05490306 eV

  Derived energy quantities:
  | Kinetic energy                :           1.74030822 Ha          47.35619618 eV
  | Electrostatic energy          :          -1.77087368 Ha         -48.18792449 eV
  | Energy correction for multipole
  | error in Hartree potential    :           0.00029184 Ha           0.00794133 eV
  | Sum of eigenvalues per atom                           :         -12.84418462 eV
  | Total energy (T->0) per atom                          :         -12.02745153 eV  <-- do not rely on this value for anything but (periodic) metals
  | Electronic free energy per atom                       :         -12.02745153 eV
  Timings for VdW correction (Tkatchenko-Scheffler 2009 or later):
  | CPU time:        0.003 s, Wall clock time:        0.002 s.

  Energy and forces in a compact form:
  | Total energy uncorrected      :         -0.240549030563202E+02 eV
  | Total energy corrected        :         -0.240549030563202E+02 eV  <-- do not rely on this value for anything but (periodic) metals
  | Electronic free energy        :         -0.240549030563202E+02 eV

  ------------------------------------ 
  Start decomposition of the XC Energy 
  ------------------------------------ 
  Hartree-Fock part   :          0.000000000 Ha              0.000000000 eV
  ------------------------------------ 
  X Energy            :         -0.809615747 Ha            -22.030765399 eV
  C Energy GGA        :         -0.043819802 Ha             -1.192397479 eV
  Total XC Energy     :         -0.853435549 Ha            -23.223162879 eV
  LDA X and C from self-consistent density 
  X Energy LDA        :         -0.708847585 Ha            -19.288724181 eV
  C Energy LDA        :         -0.103291169 Ha             -2.810695713 eV
  ------------------------------------ 
  End decomposition of the XC Energy 
  ------------------------------------ 

------------------------------------------------------------------------------
  Final output of selected total energy values:

  The following output summarizes some interesting total energy values
  at the end of a run (AFTER all relaxation, molecular dynamics, etc.).

  | Total energy of the DFT / Hartree-Fock s.c.f. calculation      :            -24.054903056 eV
  | Final zero-broadening corrected energy (caution - metals only) :            -24.054903056 eV
  | For reference only, the value of 1 Hartree used in FHI-aims is :             27.211384500 eV

  Before relying on these values, please be sure to understand exactly which
  total energy value is referred to by a given number. Different objects may
  all carry the same name 'total energy'. Definitions:

  Total energy of the DFT / Hartree-Fock s.c.f. calculation:
  | Note that this energy does not include ANY quantities calculated after the
  | s.c.f. cycle, in particular not ANY RPA, MP2, etc. many-body perturbation terms.

  Final zero-broadening corrected energy:
  | For metallic systems only, a broadening of the occupation numbers at the Fermi
  | level can be extrapolated back to zero broadening by an electron-gas inspired
  | formula. For all systems that are not real metals, this value can be
  | meaningless and should be avoided.

------------------------------------------------------------------------------

------------------------------------------------------------
          Leaving FHI-aims.
          Date     :  20220120, Time     :  152451.243

          Computational steps:
          | Number of self-consistency cycles          :           25

          Detailed time accounting                     :  max(cpu_time)    wall_clock(cpu1)
          | Total time                                 :        0.744 s           0.822 s
          | Preparation time                           :        0.069 s           0.070 s
          | Grid partitioning                          :        0.006 s           0.006 s
          | Preloading free-atom quantities on grid    :        0.003 s           0.003 s
          | Free-atom superposition energy             :        0.002 s           0.002 s
          | Total time for integrations                :        0.224 s           0.226 s
          | Total time for solution of K.-S. equations :        0.037 s           0.041 s
          | Total time for density update              :        0.156 s           0.129 s
          | Total time for mixing                      :        0.037 s           0.037 s
          | Total time for Hartree multipole update    :        0.031 s           0.035 s
          | Total time for Hartree multipole sum       :        0.102 s           0.100 s
          | Total time for total energy evaluation     :        0.004 s           0.016 s
          | Total time for scaled ZORA corrections     :        0.000 s           0.000 s
          | Total time for vdW correction              :        0.003 s           0.002 s

          Have a nice day.
------------------------------------------------------------
