  MPI-parallelism will be employed.
------------------------------------------------------------
          Invoking FHI-aims ...
          Version 052014
          Git rev. (modified): 096c982 Merge branch master of fhiaims:/pub/localo[...]
          Compiled on 2016/12/16 at 15:22:01 on host login02.hpc.iitd.ac.in.

          When using FHI-aims, please cite the following reference:

          Volker Blum, Ralf Gehrke, Felix Hanke, Paula Havu,
          Ville Havu, Xinguo Ren, Karsten Reuter, and Matthias Scheffler,
          'Ab Initio Molecular Simulations with Numeric Atom-Centered Orbitals: FHI-aims',
          Computer Physics Communications 180, 2175-2196 (2009)

          For any questions about FHI-aims, please visit the aimsclub website
          with its forums and wiki. Contributions to both the forums and the
          wiki are warmly encouraged - they are for you, and everyone is welcome there.

------------------------------------------------------------

  Date     :  20220120, Time     :  152411.164
  Time zero on CPU 1             :   0.126920000000000E-01  s.
  Internal wall clock time zero  :           411924251.164  s.

  Using        8 parallel tasks.
  Task        0 on host csky019 reporting.
  Task        1 on host csky019 reporting.
  Task        2 on host csky019 reporting.
  Task        3 on host csky019 reporting.
  Task        4 on host csky019 reporting.
  Task        5 on host csky019 reporting.
  Task        6 on host csky019 reporting.
  Task        7 on host csky019 reporting.

  Performing system and environment tests:
  | Environment variable OMP_NUM_THREADS correctly set to 1.
  | Stacksize not measured: no C compiler
  | Checking for scalapack...
  | Testing pdtran()...
  | All pdtran() tests passed.

  Obtaining array dimensions for all initial allocations:
  
  -----------------------------------------------------------------------
  Parsing control.in (first pass over file, find array dimensions only).
  The contents of control.in will be repeated verbatim below
  unless switched off by setting 'verbatim_writeout .false.' .
  in the first line of control.in .
  -----------------------------------------------------------------------
  
    xc               pbe
    spin             collinear
    default_initial_moment hund
    relativistic     atomic_zora scalar 1e-9
    occupation_type  gaussian 0.001
    charge        0
    vdw_correction_hirshfeld
    KS_method        scalapack_fast
    mixer            pulay
    charge_mix_param  0.4
    spin_mix_param    0.6
    sc_accuracy_rho  1E-4
    sc_accuracy_eev  1E-5
    sc_accuracy_etot 1E-5
    sc_iter_limit    100
    empty_states     10
  ################################################################################
  #
  #  FHI-aims code project
  # Volker Blum, Fritz Haber Institute Berlin, 2009
  #
  #  Suggested "tight" defaults for H atom (to be pasted into control.in file)
  #
  ################################################################################
    species        H
  #     global species definitions
      nucleus             1
      mass                1.00794
  #
      l_hartree           6
  #
      cut_pot             4.0  2.0  1.0
      basis_dep_cutoff    1e-4
  #
      radial_base         24 7.0
      radial_multiplier   2
      angular_grids       specified
        division   0.1930   50
        division   0.3175  110
        division   0.4293  194
        division   0.5066  302
        division   0.5626  434
  #      division   0.5922  590
  #      division   0.6227  974
  #      division   0.6868 1202
  #      outer_grid  770
        outer_grid  434
  ################################################################################
  #
  #  Definition of "minimal" basis
  #
  ################################################################################
  #     valence basis states
      valence      1  s   1.
  #     ion occupancy
      ion_occ      1  s   0.5
  ################################################################################
  #
  #  Suggested additional basis functions. For production calculations,
  #  uncomment them one after another (the most important basis functions are
  #  listed first).
  #
  #  Basis constructed for dimers: 0.5 A, 0.7 A, 1.0 A, 1.5 A, 2.5 A
  #
  ################################################################################
  #  "First tier" - improvements: -1014.90 meV to -62.69 meV
       hydro 2 s 2.1
       hydro 2 p 3.5
  #  "Second tier" - improvements: -12.89 meV to -1.83 meV
       hydro 1 s 0.85
       hydro 2 p 3.7
       hydro 2 s 1.2
       hydro 3 d 7
  #  "Third tier" - improvements: -0.25 meV to -0.12 meV
  #     hydro 4 f 11.2
  #     hydro 3 p 4.8
  #     hydro 4 d 9
  #     hydro 3 s 3.2
  ################################################################################
  #
  # For methods that use the localized form of the "resolution of identity" for
  # the two-electron Coulomb operator (RI_method LVL), particularly Hartree-Fock and
  # hybrid density functional calculations, the highest accuracy can be obtained by
  # uncommenting the line beginning with "for_aux"  below, thus adding an extra g radial
  # function to the construction of the product basis set for the expansion.
  # See Ref. New J. Phys. 17, 093020 (2015) for more information, particularly Figs. 1 and 6.
  #
  ################################################################################
  #
  # for_aux hydro 5 g 6.0
  
  -----------------------------------------------------------------------
  Completed first pass over input file control.in .
  -----------------------------------------------------------------------
  
  
  -----------------------------------------------------------------------
  Parsing geometry.in (first pass over file, find array dimensions only).
  The contents of geometry.in will be repeated verbatim below
  unless switched off by setting 'verbatim_writeout .false.' .
  in the first line of geometry.in .
  -----------------------------------------------------------------------
  
  atom 0 0 0 H
  atom 0 0 0.62 H
  
  -----------------------------------------------------------------------
  Completed first pass over input file geometry.in .
  -----------------------------------------------------------------------
  

  Basic array size parameters:
  | Number of species                 :        1
  | Number of atoms                   :        2
  | Max. basis fn. angular momentum   :        2
  | Max. atomic/ionic basis occupied n:        1
  | Max. number of basis fn. types    :        2
  | Max. radial fns per species/type  :        6
  | Max. logarithmic grid size        :     1131
  | Max. radial integration grid size :       49
  | Max. angular integration grid size:      434
  | Max. angular grid division number :        8
  | Radial grid for Hartree potential :     1131
  | Number of spin channels           :        2

------------------------------------------------------------
          Reading file control.in.
------------------------------------------------------------
  XC: Using PBE gradient-corrected functionals.
  Spin treatment: Spin density functional theory - collinear spins.
  Initial spin moment per atom set according to Hund's rules.
  Scalar relativistic treatment of kinetic energy: on-site free-atom approximation to ZORA.
  Occupation type: Gaussian broadening, width =   0.100000E-02 eV.
  Charge =   0.000000E+00: Neutral system requested explicitly.
  Using non-empirical van der Waals correction (Hirshfeld partitioning):
  Kohn-Sham eigenvalues and eigenfunctions calculated by the ELPA eigensolver library.
  Using pulay charge density mixing.
  Charge density mixing - mixing parameter:     0.4000
  Spin density mixing - mixing parameter:     0.6000
  Convergence accuracy of self-consistent charge density: 0.1000E-03
  Convergence accuracy of sum of eigenvalues: 0.1000E-04
  Convergence accuracy of total energy: 0.1000E-04
  Maximum number of s.-c. iterations  :   100
  Number of empty states per atom:       10
 
  Reading configuration options for species H                   .
  | Found nuclear charge :   1.0000
  | Found atomic mass :    1.00794000000000      amu
  | Found l_max for Hartree potential  :   6
  | Found cutoff potl. onset [A], width [A], scale factor :    4.00000    2.00000    1.00000
  | Threshold for basis-dependent cutoff potential is   0.100000E-03
  | Found data for basic radial integration grid :    24 points, outermost radius =    7.000 A
  | Found multiplier for basic radial grid :   2
  | Found angular grid specification: user-specified.
  | Specified grid contains     6 separate shells.
  | Check grid settings after all constraints further below.
  | Found free-atom valence shell :  1 s   1.000
  | No ionic wave fns used. Skipping ion_occ.
  | Found hydrogenic basis function :  2 s   2.100
  | Found hydrogenic basis function :  2 p   3.500
  | Found hydrogenic basis function :  1 s   0.850
  | Found hydrogenic basis function :  2 p   3.700
  | Found hydrogenic basis function :  2 s   1.200
  | Found hydrogenic basis function :  3 d   7.000
  Species H                   : Missing cutoff potential type.
  Defaulting to exp(1/x)/(1-x)^2 type cutoff potential.
  Species H : No 'logarithmic' tag. Using default grid for free atom:
  | Default logarithmic grid data [bohr] : 0.1000E-03 0.1000E+03 0.1012E+01
  Species H : On-site basis accuracy parameter (for Gram-Schmidt orthonormalisation) not specified.
  Using default value basis_acc =  0.1000000E-03.
  Species H                   : Using default innermost maximum threshold i_radial=  2 for radial functions.
  Species H                   : Default cutoff onset for free atom density etc. : 0.40000000E+01 AA.
  Species H                   : Basic radial grid will be enhanced according to radial_multiplier =   2, to contain    49 grid points.
 
  Finished reading input file 'control.in'. Consistency checks are next.
 
  Target number of points in a grid batch is not set. Defaulting to  100
  Method for grid partitioning is not set. Defaulting to parallel hash+maxmin partitioning.
  Batch size limit is not set. Defaulting to    200
  By default, will store active basis functions for each batch.
  If in need of memory, prune_basis_once .false. can be used to disable this option.
  communication_type for Hartree potential was not specified.
  Defaulting to calc_hartree .
  Pulay mixer: Number of relevant iterations not set.
  Defaulting to    8 iterations.
  Pulay mixer: Number of initial linear mixing iterations not set.
  Defaulting to    0 iterations.
  Work space size for distributed Hartree potential not set.
  Defaulting to   0.200000E+03 MB.
  Algorithm-dependent basis array size parameters:
  | n_max_pulay                         :        8
  Calculation of forces was not defined in control.in. No forces will be calculated.
  Geometry relaxation not requested: no relaxation will be performed.
  No accuracy limit for integral partition fn. given. Defaulting to 0.1000E-14.
  No threshold value for u(r) in integrations given. Defaulting to 0.1000E-05.
  No accuracy for occupation numbers given. Defaulting to 0.1000E-07.
  No threshold value for occupation numbers given. Defaulting to 0.0000E+00.
  No accuracy for fermi level given. Defaulting to 0.1000E-19.
  Maximum # of iterations to find E_F not set. Defaulting to  200.
  Will not use alltoall communication since running on < 1024 CPUs.
  Threshold for basis singularities not set.
  Default threshold for basis singularities: 0.1000E-04
  partition_type (choice of integration weights) for integrals was not specified.
  | Using a version of the partition function of Stratmann and coworkers ('stratmann_smoother').
  | At each grid point, the set of atoms used to build the partition table is smoothly restricted to
  | only those atoms whose free-atom density would be non-zero at that grid point.
  Partitioning for Hartree potential was not defined. Using partition_type for integrals.
  | Adjusted default value of keyword multip_moments_threshold to:       0.10000000E-11
  | This value may affect high angular momentum components of the Hartree potential in periodic systems.
  No q(lm)/r^(l+1) cutoff set for long-range Hartree potential.
  | Using default value of  0.100000E-09 .
  | Verify using the multipole_threshold keyword.
  Defaulting to new monopole extrapolation.
  Density update method: automatic selection selected.
------------------------------------------------------------


------------------------------------------------------------
          Reading geometry description geometry.in.
------------------------------------------------------------
  Input structure read successfully.
  The structure contains        2 atoms,  and a total of          2.000 electrons.

  Input geometry:
  | No unit cell requested.
  | Atomic structure:
  |       Atom                x [A]            y [A]            z [A]
  |    1: Species H              0.000000         0.000000         0.000000
  |    2: Species H              0.000000         0.000000         0.620000
  |

  | The smallest distance between any two atoms is         0.62000000 AA.
  |
  | The first atom of this pair is atom number                      1 .
  | The second atom of this pair is atom number                     2 .

  Initial moments and charges:
  |  Atom   Moment         Charge        Species
  |     1  (Hund's rule)   0.000000E+00   H
  |     2  (Hund's rule)   0.000000E+00   H

  Structure-dependent array size parameters: 
  | Number of distinct atom types in initial rho :        1
  | Maximum number of distinct radial functions  :        7
  | Maximum number of basis functions            :       30
  | Number of Kohn-Sham states (occupied + empty):       11
------------------------------------------------------------

------------------------------------------------------------
          Preparing all fixed parts of the calculation.
------------------------------------------------------------
  Determining machine precision:
    2.225073858507201E-308
  Setting up grids for atomic and cluster calculations.

  Creating wave function, potential, and density for free atoms.

  Species: H

  List of occupied orbitals and eigenvalues:
    n    l              occ      energy [Ha]    energy [eV]
    1    0           1.0000        -0.238386        -6.4868

  Spin-polarized or charged system:
  Charge density initialized according to selected moments and charges.

  Creating spin-polarized density from free atoms.

  Species: H
  Charge:   0.000000
  applying Hund's rules ...

  List of occupied orbitals and eigenvalues:
    n    l      energy [Ha]    energy [eV]    occupation
  Spin-up
    1    0        -0.278991        -7.5917     1.00000000
  Spin-down
    1    0         0.090850         2.4721     0.00000000

  Creating fixed part of basis set: Ionic, confined, hydrogenic.
 
  H                    hydrogenic:
 
  List of hydrogenic basis orbitals: 
    n    l      effective z      eigenvalue [eV]  inner max. [A]     outer max. [A]     outer radius [A]   
    2    0         2.100000       -14.9965           0.193243           1.317208           5.373006
    2    1         3.500000       -41.6672           0.602369           0.602369           4.056063
    1    0         0.850000        -9.8292           0.624871           0.624871           5.373006
    2    1         3.700000       -46.5653           0.573622           0.573622           3.910002
    2    0         1.200000        -4.5995           0.334980           2.228188           5.505995
    3    2         7.000000       -74.0753           0.680699           0.680699           3.769201
 

  Adding cutoff potential to free-atom effective potential.
  Creating atomic-like basis functions for current effective potential.

  Species H                   :

  List of atomic basis orbitals and eigenvalues:
    n    l      energy [Ha]    energy [eV]    outer radius [A]
    1    0        -0.238386        -6.4868       5.373006

  Assembling full basis from fixed parts.
  | Species H :   atomic orbital   1 s accepted.
  | Species H :    hydro orbital   2 s accepted.
  | Species H :    hydro orbital   1 s accepted.
  | Species H :    hydro orbital   2 s accepted.
  | Species H :    hydro orbital   2 p accepted.
  | Species H :    hydro orbital   2 p accepted.
  | Species H :    hydro orbital   3 d accepted.
 
  Basis size parameters after reduction:
  | Total number of radial functions:        7
  | Total number of basis functions :       30
 
  Testing on-site integration grid accuracy.
  |  Species  Function  <phi|h_atom|phi> (log., in eV)  <phi|h_atom|phi> (rad., in eV)
           1        1                 -6.4870767962                 -6.4871688290
           1        2                 13.5032046589                 13.5028982997
           1        3                 32.8195184817                 32.8119941656
           1        4                 33.8513856511                 33.7670005767 ***
           1        5                 28.8544614965                 28.8544615203
           1        6                 59.6326952547                 59.6327656460
           1        7                 60.2719308513                 60.2719305949
 * Note: Onsite integrals marked "***" above are less accurate than
 * onsite_accuracy_threshold =    0.03000 eV. Usually, this is harmless.
 * When in doubt, tighten the "radial" and/or "radial_multiplier" flags to check.

  Preparing densities etc. for the partition functions (integrals / Hartree potential).

  Preparations completed.
  max(cpu_time)          :      0.079 s.
  Wall clock time (cpu1) :      0.080 s.
------------------------------------------------------------

------------------------------------------------------------
          Begin self-consistency loop: Initialization.

          Date     :  20220120, Time     :  152411.331
------------------------------------------------------------

  Initializing index lists of integration centers etc. from given atomic structure:
  | Number of centers in hartree potential         :         2
  | Number of centers in hartree multipole         :         2
  | Number of centers in electron density summation:         2
  | Number of centers in basis integrals           :         2
  | Number of centers in integrals                 :         2
  Using modified Scalapack Eigenvalue solver (ELPA)
  * Using 8 tasks for Scalapack Eigenvalue solver.
  Detailed listing of tasks and assigned k-points:
  (for non-periodic systems, the "k-point" denotes an internal label only)
   Task     0 k-point     1 on csky019
   Task     1 k-point     1 on csky019
   Task     2 k-point     1 on csky019
   Task     3 k-point     1 on csky019
   Task     4 k-point     1 on csky019
   Task     5 k-point     1 on csky019
   Task     6 k-point     1 on csky019
   Task     7 k-point     1 on csky019
  Tasks:     8 split into      4 X      2 BLACS grid
  Calculating blocksize based on n_basis =           30 max_nprow =            4 max_npcol =            2
  Scalapack blocksize set to:            4
  Required Scalapack workspace - INTEGER:            1 REAL:             1
  Partitioning the integration grid into batches with parallel hashing+maxmin method.
  | Number of batches:      445
  | Maximal batch size:     198
  | Minimal batch size:      49
  | Average batch size:      64.944
  | Standard deviation of batch sizes:      18.511

  Integration load balanced across     8 MPI tasks.
  Work distribution over tasks is as follows:
  Task     0 has       3675 integration points.
  Task     1 has       3582 integration points.
  Task     2 has       3590 integration points.
  Task     3 has       3658 integration points.
  Task     4 has       3578 integration points.
  Task     5 has       3623 integration points.
  Task     6 has       3591 integration points.
  Task     7 has       3603 integration points.
  Initializing partition tables, free-atom densities, potentials, etc. across the integration grid (initialize_grid_storage).
  | initialize_grid_storage: Actual outermost partition radius vs. multipole_radius_free
  | (-- VB: in principle, multipole_radius_free should be larger, hence this output)
  | Species        1: outer_partition_radius =              6.000000000000000 AA, multipole_radius_free =              6.071692442739658 AA.
  | Original list of interatomic distances with           2 x          2 entries is created.
  | Net number of integration points:    28900
  | of which are non-zero points    :    26304
  Obtaining max. number of non-zero basis functions in each batch (get_n_compute_maxes).
  | Maximal number of non-zero basis functions:       30 in task     0
  | Maximal number of non-zero basis functions:       30 in task     1
  | Maximal number of non-zero basis functions:       30 in task     2
  | Maximal number of non-zero basis functions:       30 in task     3
  | Maximal number of non-zero basis functions:       30 in task     4
  | Maximal number of non-zero basis functions:       30 in task     5
  | Maximal number of non-zero basis functions:       30 in task     6
  | Maximal number of non-zero basis functions:       30 in task     7
  Selecting the method for density update.
  Loop over occupied states selected for charge density update.
  Integrating Hamiltonian matrix: batch-based integration.
  Time summed over all CPUs for integration: real work        0.082 s, elapsed        0.089 s
  Integrating overlap matrix.
  Time summed over all CPUs for integration: real work        0.020 s, elapsed        0.023 s
  Deallocating overlap matrix.

  Updating Kohn-Sham eigenvalues, eigenvectors, occupation numbers, and Fermi level.
  Solving generalized eigenproblem
  Solving real symmetric generalised eigenvalue problem by standard ScaLAPACK.
  Transforming overlap matrix with ScaLAPACK and checking for singularities.
  : Overlap matrix is nonsingular, using Cholesky decomposition
  | Lowest eigenvalue:  0.124378E-03
  Factoring overlap matrix with Cholesky decomposition
  Using Cholesky factor for transformation
  Using 1-stage real ELPA solver
  Solving real symmetric generalised eigenvalue problem by standard ScaLAPACK.
  Using Cholesky factor for transformation
  Using 1-stage real ELPA solver
  Determining occupation numbers for Kohn-Sham eigenstates.
  | Chemical potential (Fermi level) in eV                 : -.26518748E+00
  | Error in electron count due to remaining E_F inaccuracy: 0.00000000E+00
  | Maximum occupation number of highest empty state:  0.00E+00

  Writing Kohn-Sham eigenvalues.

  Spin-up eigenvalues:

  State    Occupation    Eigenvalue [Ha]    Eigenvalue [eV]
      1       1.00000          -0.652628          -17.75890
      2       1.00000          -0.031912           -0.86837
      3       0.00000           0.004012            0.10918
      4       0.00000           0.120013            3.26572
      5       0.00000           0.206542            5.62029
      6       0.00000           0.206542            5.62029
      7       0.00000           0.284322            7.73680
      8       0.00000           0.494786           13.46382
      9       0.00000           0.689727           18.76842
     10       0.00000           0.690115           18.77898
     11       0.00000           0.690115           18.77898

  Spin-down eigenvalues:

  State    Occupation    Eigenvalue [Ha]    Eigenvalue [eV]
      1       0.00000           0.099195            2.69922
      2       0.00000           0.115288            3.13714
      3       0.00000           0.504051           13.71592
      4       0.00000           0.531941           14.47485
      5       0.00000           1.167321           31.76443
      6       0.00000           1.167321           31.76443
      7       0.00000           1.185336           32.25462
      8       0.00000           1.512468           41.15635
      9       0.00000           1.512468           41.15635
     10       0.00000           1.575254           42.86483
     11       0.00000           1.687419           45.91700

  Current spin moment of the entire structure :
  | N = N_up - N_down :    2.00
  | S                 :    1.00
  | J                 :    3.00

  Highest occupied state (VBM) at     -0.86837222 eV
  | Occupation number:      1.00000000
  | Spin channel:        1

  Lowest unoccupied state (CBM) at     0.10917702 eV
  | Occupation number:      0.00000000
  | Spin channel:        1

  Overall HOMO-LUMO gap:      0.97754924 eV.
  Calculating total energy contributions from superposition of free atom densities.

  Total energy components:
  | Sum of eigenvalues            :          -0.68453971 Ha         -18.62727330 eV
  | XC energy correction          :          -0.69907775 Ha         -19.02287338 eV
  | XC potential correction       :           0.90236401 Ha          24.55457404 eV
  | Free-atom electrostatic energy:          -0.22871010 Ha          -6.22351842 eV
  | Hartree energy correction     :           0.00000000 Ha           0.00000000 eV
  | van der Waals energy corr.    :           0.00000000 Ha           0.00000000 eV
  | Entropy correction            :           0.00000000 Ha           0.00000000 eV
  | ---------------------------
  | Total energy                  :          -0.70996355 Ha         -19.31909107 eV
  | Total energy, T -> 0          :          -0.70996355 Ha         -19.31909107 eV  <-- do not rely on this value for anything but (periodic) metals
  | Electronic free energy        :          -0.70996355 Ha         -19.31909107 eV

  Derived energy quantities:
  | Kinetic energy                :           1.24235748 Ha          33.80626716 eV
  | Electrostatic energy          :          -1.25324328 Ha         -34.10248484 eV
  | Energy correction for multipole
  | error in Hartree potential    :           0.00000000 Ha           0.00000000 eV
  | Sum of eigenvalues per atom                           :          -9.31363665 eV
  | Total energy (T->0) per atom                          :          -9.65954553 eV  <-- do not rely on this value for anything but (periodic) metals
  | Electronic free energy per atom                       :          -9.65954553 eV
  Initialize hartree_potential_storage
  Max. number of atoms included in rho_multipole:            2

  End scf initialization - timings             :  max(cpu_time)    wall_clock(cpu1)
  | Time for scf. initialization               :        0.042 s           0.042 s
  | Boundary condition initialization          :        0.000 s           0.000 s
  | Integration                                :        0.014 s           0.014 s
  | Solution of K.-S. eqns.                    :        0.008 s           0.007 s
  | Grid partitioning                          :        0.007 s           0.007 s
  | Preloading free-atom quantities on grid    :        0.004 s           0.003 s
  | Free-atom superposition energy             :        0.003 s           0.003 s
  | Total energy evaluation                    :        0.000 s           0.001 s
------------------------------------------------------------

------------------------------------------------------------
          Begin self-consistency iteration #    1

  Date     :  20220120, Time     :  152411.373
------------------------------------------------------------
  Evaluating new KS density.
  Integration grid: deviation in total charge (<rho> - N_e) =   3.273111E-07
  | <rho_up-rho_dn> = N_up-N_dn =      2.0000; <|rho_up-rho_dn|> =      2.1472
  Pulay mixing of updated and previous charge densities.

  Evaluating partitioned Hartree potential by multipole expansion.
  | Analytical far-field extrapolation by fixed multipoles:
  | Hartree multipole sum: apparent total charge =  -0.133152E-04
  Summing up the Hartree potential.
  Time summed over all CPUs for potential: real work        0.034 s, elapsed        0.035 s
  | RMS charge density error from multipole expansion :   0.825291E-03

  Integrating Hamiltonian matrix: batch-based integration.
  Time summed over all CPUs for integration: real work        0.067 s, elapsed        0.072 s

  Updating Kohn-Sham eigenvalues, eigenvectors, occupation numbers, and Fermi level.
  Solving generalized eigenproblem
  Solving real symmetric generalised eigenvalue problem by standard ScaLAPACK.
  Using Cholesky factor for transformation
  Using 1-stage real ELPA solver
  Solving real symmetric generalised eigenvalue problem by standard ScaLAPACK.
  Using Cholesky factor for transformation
  Using 1-stage real ELPA solver
  Determining occupation numbers for Kohn-Sham eigenstates.
  | Chemical potential (Fermi level) in eV                 : -.65652266E+01
  | Error in electron count due to remaining E_F inaccuracy: 0.00000000E+00
  | Maximum occupation number of highest empty state:  0.00E+00

  Writing Kohn-Sham eigenvalues.

  Spin-up eigenvalues:

  State    Occupation    Eigenvalue [Ha]    Eigenvalue [eV]
      1       1.00000          -0.536105          -14.58817
      2       0.00000           0.062195            1.69241
      3       0.00000           0.064501            1.75517
      4       0.00000           0.175593            4.77813
      5       0.00000           0.229649            6.24907
      6       0.00000           0.229649            6.24907
      7       0.00000           0.347380            9.45270
      8       0.00000           0.569343           15.49262
      9       0.00000           0.755438           20.55651
     10       0.00000           0.755438           20.55651
     11       0.00000           0.819992           22.31312

  Spin-down eigenvalues:

  State    Occupation    Eigenvalue [Ha]    Eigenvalue [eV]
      1       1.00000          -0.318355           -8.66289
      2       0.00000           0.082965            2.25759
      3       0.00000           0.089931            2.44714
      4       0.00000           0.247241            6.72776
      5       0.00000           0.340680            9.27037
      6       0.00000           0.340680            9.27037
      7       0.00000           0.407767           11.09592
      8       0.00000           0.691539           18.81774
      9       0.00000           0.845110           22.99661
     10       0.00000           0.845110           22.99661
     11       0.00000           0.886053           24.11072

  Current spin moment of the entire structure :
  | N = N_up - N_down :    0.00
  | S                 :    0.00
  | J                 :    1.00

  Highest occupied state (VBM) at     -8.66289254 eV
  | Occupation number:      1.00000000
  | Spin channel:        2

  Lowest unoccupied state (CBM) at     1.69241347 eV
  | Occupation number:      0.00000000
  | Spin channel:        1

  Overall HOMO-LUMO gap:     10.35530601 eV.

  Total energy components:
  | Sum of eigenvalues            :          -0.85446074 Ha         -23.25105979 eV
  | XC energy correction          :          -0.48407215 Ha         -13.17227348 eV
  | XC potential correction       :           0.62293242 Ha          16.95085364 eV
  | Free-atom electrostatic energy:          -0.22871010 Ha          -6.22351842 eV
  | Hartree energy correction     :           0.03291651 Ha           0.89570371 eV
  | van der Waals energy corr.    :           0.00000000 Ha           0.00000000 eV
  | Entropy correction            :           0.00000000 Ha           0.00000000 eV
  | ---------------------------
  | Total energy                  :          -0.91139407 Ha         -24.80029434 eV
  | Total energy, T -> 0          :          -0.91139407 Ha         -24.80029434 eV  <-- do not rely on this value for anything but (periodic) metals
  | Electronic free energy        :          -0.91139407 Ha         -24.80029434 eV

  Derived energy quantities:
  | Kinetic energy                :           0.87763934 Ha          23.88178153 eV
  | Electrostatic energy          :          -1.30496125 Ha         -35.50980239 eV
  | Energy correction for multipole
  | error in Hartree potential    :          -0.00014751 Ha          -0.00401403 eV
  | Sum of eigenvalues per atom                           :         -11.62552989 eV
  | Total energy (T->0) per atom                          :         -12.40014717 eV  <-- do not rely on this value for anything but (periodic) metals
  | Electronic free energy per atom                       :         -12.40014717 eV

  Self-consistency convergence accuracy:
  | Change of charge/spin density : 0.6660E-01 0.6660E-01
  | Change of sum of eigenvalues  : -.4624E+01 eV
  | Change of total energy        : -.5481E+01 eV

  End self-consistency iteration #     1       :  max(cpu_time)    wall_clock(cpu1)
  | Time for this iteration                    :        0.027 s           0.027 s
  | Charge density update                      :        0.007 s           0.007 s
  | Density mixing                             :        0.001 s           0.001 s
  | Hartree multipole update                   :        0.001 s           0.001 s
  | Hartree multipole summation                :        0.005 s           0.005 s
  | Integration                                :        0.009 s           0.010 s
  | Solution of K.-S. eqns.                    :        0.001 s           0.001 s
  | Total energy evaluation                    :        0.000 s           0.001 s
------------------------------------------------------------

------------------------------------------------------------
          Begin self-consistency iteration #    2

  Date     :  20220120, Time     :  152411.402
------------------------------------------------------------
  Evaluating new KS density.
  Integration grid: deviation in total charge (<rho> - N_e) =   1.963867E-07
  | <rho_up-rho_dn> = N_up-N_dn =     -2.0000; <|rho_up-rho_dn|> =      2.0000
  Pulay mixing of updated and previous charge densities.

  Evaluating partitioned Hartree potential by multipole expansion.
  | Analytical far-field extrapolation by fixed multipoles:
  | Hartree multipole sum: apparent total charge =  -0.130995E-04
  Summing up the Hartree potential.
  Time summed over all CPUs for potential: real work        0.034 s, elapsed        0.043 s
  | RMS charge density error from multipole expansion :   0.807853E-03

  Integrating Hamiltonian matrix: batch-based integration.
  Time summed over all CPUs for integration: real work        0.071 s, elapsed        0.087 s

  Updating Kohn-Sham eigenvalues, eigenvectors, occupation numbers, and Fermi level.
  Solving generalized eigenproblem
  Solving real symmetric generalised eigenvalue problem by standard ScaLAPACK.
  Using Cholesky factor for transformation
  Using 1-stage real ELPA solver
  Solving real symmetric generalised eigenvalue problem by standard ScaLAPACK.
  Using Cholesky factor for transformation
  Using 1-stage real ELPA solver
  Determining occupation numbers for Kohn-Sham eigenstates.
  | Chemical potential (Fermi level) in eV                 : -.88214499E+01
  | Error in electron count due to remaining E_F inaccuracy: 0.00000000E+00
  | Maximum occupation number of highest empty state:  0.00E+00

  Current spin moment of the entire structure :
  | N = N_up - N_down :    0.00
  | S                 :    0.00
  | J                 :    1.00

  Highest occupied state (VBM) at    -10.23211329 eV
  | Occupation number:      1.00000000
  | Spin channel:        2

  Lowest unoccupied state (CBM) at     1.28766129 eV
  | Occupation number:      0.00000000
  | Spin channel:        1

  Overall HOMO-LUMO gap:     11.51977457 eV.

  Total energy components:
  | Sum of eigenvalues            :          -1.01221243 Ha         -27.54370161 eV
  | XC energy correction          :          -0.58200079 Ha         -15.83704741 eV
  | XC potential correction       :           0.75131503 Ha          20.44432229 eV
  | Free-atom electrostatic energy:          -0.22871010 Ha          -6.22351842 eV
  | Hartree energy correction     :           0.02842617 Ha           0.77351547 eV
  | van der Waals energy corr.    :           0.00000000 Ha           0.00000000 eV
  | Entropy correction            :           0.00000000 Ha           0.00000000 eV
  | ---------------------------
  | Total energy                  :          -1.04318212 Ha         -28.38642969 eV
  | Total energy, T -> 0          :          -1.04318212 Ha         -28.38642969 eV  <-- do not rely on this value for anything but (periodic) metals
  | Electronic free energy        :          -1.04318212 Ha         -28.38642969 eV

  Derived energy quantities:
  | Kinetic energy                :           0.84941286 Ha          23.11369997 eV
  | Electrostatic energy          :          -1.31059418 Ha         -35.66308225 eV
  | Energy correction for multipole
  | error in Hartree potential    :          -0.00014352 Ha          -0.00390530 eV
  | Sum of eigenvalues per atom                           :         -13.77185081 eV
  | Total energy (T->0) per atom                          :         -14.19321484 eV  <-- do not rely on this value for anything but (periodic) metals
  | Electronic free energy per atom                       :         -14.19321484 eV

  Self-consistency convergence accuracy:
  | Change of charge/spin density : 0.1280E+00 0.2949E+00
  | Change of sum of eigenvalues  : -.4293E+01 eV
  | Change of total energy        : -.3586E+01 eV

  End self-consistency iteration #     2       :  max(cpu_time)    wall_clock(cpu1)
  | Time for this iteration                    :        0.029 s           0.029 s
  | Charge density update                      :        0.007 s           0.006 s
  | Density mixing                             :        0.001 s           0.001 s
  | Hartree multipole update                   :        0.001 s           0.001 s
  | Hartree multipole summation                :        0.006 s           0.006 s
  | Integration                                :        0.011 s           0.011 s
  | Solution of K.-S. eqns.                    :        0.002 s           0.002 s
  | Total energy evaluation                    :        0.000 s           0.000 s
------------------------------------------------------------

------------------------------------------------------------
          Begin self-consistency iteration #    3

  Date     :  20220120, Time     :  152411.432
------------------------------------------------------------
  Evaluating new KS density.
  Integration grid: deviation in total charge (<rho> - N_e) =   1.933035E-07
  | <rho_up-rho_dn> = N_up-N_dn =     -1.9529; <|rho_up-rho_dn|> =      1.9529
  Pulay mixing of updated and previous charge densities.

  Evaluating partitioned Hartree potential by multipole expansion.
  | Analytical far-field extrapolation by fixed multipoles:
  | Hartree multipole sum: apparent total charge =  -0.131839E-04
  Summing up the Hartree potential.
  Time summed over all CPUs for potential: real work        0.035 s, elapsed        0.042 s
  | RMS charge density error from multipole expansion :   0.768089E-03

  Integrating Hamiltonian matrix: batch-based integration.
  Time summed over all CPUs for integration: real work        0.070 s, elapsed        0.089 s

  Updating Kohn-Sham eigenvalues, eigenvectors, occupation numbers, and Fermi level.
  Solving generalized eigenproblem
  Solving real symmetric generalised eigenvalue problem by standard ScaLAPACK.
  Using Cholesky factor for transformation
  Using 1-stage real ELPA solver
  Solving real symmetric generalised eigenvalue problem by standard ScaLAPACK.
  Using Cholesky factor for transformation
  Using 1-stage real ELPA solver
  Determining occupation numbers for Kohn-Sham eigenstates.
  | Chemical potential (Fermi level) in eV                 : -.78816550E+01
  | Error in electron count due to remaining E_F inaccuracy: 0.00000000E+00
  | Maximum occupation number of highest empty state:  0.00E+00

  Current spin moment of the entire structure :
  | N = N_up - N_down :    0.00
  | S                 :    0.00
  | J                 :    1.00

  Highest occupied state (VBM) at     -9.68250687 eV
  | Occupation number:      1.00000000
  | Spin channel:        2

  Lowest unoccupied state (CBM) at     1.26368824 eV
  | Occupation number:      0.00000000
  | Spin channel:        1

  Overall HOMO-LUMO gap:     10.94619511 eV.

  Total energy components:
  | Sum of eigenvalues            :          -0.94831473 Ha         -25.80495669 eV
  | XC energy correction          :          -0.54334511 Ha         -14.78517283 eV
  | XC potential correction       :           0.70037532 Ha          19.05818203 eV
  | Free-atom electrostatic energy:          -0.22871010 Ha          -6.22351842 eV
  | Hartree energy correction     :           0.03478256 Ha           0.94648169 eV
  | van der Waals energy corr.    :           0.00000000 Ha           0.00000000 eV
  | Entropy correction            :           0.00000000 Ha           0.00000000 eV
  | ---------------------------
  | Total energy                  :          -0.98521206 Ha         -26.80898422 eV
  | Total energy, T -> 0          :          -0.98521206 Ha         -26.80898422 eV  <-- do not rely on this value for anything but (periodic) metals
  | Electronic free energy        :          -0.98521206 Ha         -26.80898422 eV

  Derived energy quantities:
  | Kinetic energy                :           0.85349111 Ha          23.22467485 eV
  | Electrostatic energy          :          -1.29535806 Ha         -35.24848624 eV
  | Energy correction for multipole
  | error in Hartree potential    :          -0.00013374 Ha          -0.00363936 eV
  | Sum of eigenvalues per atom                           :         -12.90247834 eV
  | Total energy (T->0) per atom                          :         -13.40449211 eV  <-- do not rely on this value for anything but (periodic) metals
  | Electronic free energy per atom                       :         -13.40449211 eV

  Self-consistency convergence accuracy:
  | Change of charge/spin density : 0.1850E+00 0.2773E+00
  | Change of sum of eigenvalues  : 0.1739E+01 eV
  | Change of total energy        : 0.1577E+01 eV

  End self-consistency iteration #     3       :  max(cpu_time)    wall_clock(cpu1)
  | Time for this iteration                    :        0.031 s           0.031 s
  | Charge density update                      :        0.008 s           0.008 s
  | Density mixing                             :        0.002 s           0.001 s
  | Hartree multipole update                   :        0.001 s           0.002 s
  | Hartree multipole summation                :        0.005 s           0.005 s
  | Integration                                :        0.011 s           0.012 s
  | Solution of K.-S. eqns.                    :        0.001 s           0.001 s
  | Total energy evaluation                    :        0.000 s           0.000 s
------------------------------------------------------------

------------------------------------------------------------
          Begin self-consistency iteration #    4

  Date     :  20220120, Time     :  152411.464
------------------------------------------------------------
  Evaluating new KS density.
  Integration grid: deviation in total charge (<rho> - N_e) =   1.936098E-07
  | <rho_up-rho_dn> = N_up-N_dn =     -1.9557; <|rho_up-rho_dn|> =      1.9557
  Pulay mixing of updated and previous charge densities.

  Evaluating partitioned Hartree potential by multipole expansion.
  | Analytical far-field extrapolation by fixed multipoles:
  | Hartree multipole sum: apparent total charge =  -0.128603E-04
  Summing up the Hartree potential.
  Time summed over all CPUs for potential: real work        0.033 s, elapsed        0.034 s
  | RMS charge density error from multipole expansion :   0.506344E-03

  Integrating Hamiltonian matrix: batch-based integration.
  Time summed over all CPUs for integration: real work        0.068 s, elapsed        0.072 s

  Updating Kohn-Sham eigenvalues, eigenvectors, occupation numbers, and Fermi level.
  Solving generalized eigenproblem
  Solving real symmetric generalised eigenvalue problem by standard ScaLAPACK.
  Using Cholesky factor for transformation
  Using 1-stage real ELPA solver
  Solving real symmetric generalised eigenvalue problem by standard ScaLAPACK.
  Using Cholesky factor for transformation
  Using 1-stage real ELPA solver
  Determining occupation numbers for Kohn-Sham eigenstates.
  | Chemical potential (Fermi level) in eV                 : -.77773538E+01
  | Error in electron count due to remaining E_F inaccuracy: 0.00000000E+00
  | Maximum occupation number of highest empty state:  0.00E+00

  Current spin moment of the entire structure :
  | N = N_up - N_down :    0.00
  | S                 :    0.00
  | J                 :    1.00

  Highest occupied state (VBM) at    -11.12891828 eV
  | Occupation number:      1.00000000
  | Spin channel:        2

  Lowest unoccupied state (CBM) at     0.40874336 eV
  | Occupation number:      0.00000000
  | Spin channel:        1

  Overall HOMO-LUMO gap:     11.53766163 eV.

  Total energy components:
  | Sum of eigenvalues            :          -0.98004514 Ha         -26.66838505 eV
  | XC energy correction          :          -0.51768129 Ha         -14.08682456 eV
  | XC potential correction       :           0.66662805 Ha          18.13987224 eV
  | Free-atom electrostatic energy:          -0.22871010 Ha          -6.22351842 eV
  | Hartree energy correction     :           0.06895537 Ha           1.87637113 eV
  | van der Waals energy corr.    :           0.00000000 Ha           0.00000000 eV
  | Entropy correction            :           0.00000000 Ha           0.00000000 eV
  | ---------------------------
  | Total energy                  :          -0.99085310 Ha         -26.96248467 eV
  | Total energy, T -> 0          :          -0.99085310 Ha         -26.96248467 eV  <-- do not rely on this value for anything but (periodic) metals
  | Electronic free energy        :          -0.99085310 Ha         -26.96248467 eV

  Derived energy quantities:
  | Kinetic energy                :           0.67741396 Ha          18.43337167 eV
  | Electrostatic energy          :          -1.15058577 Ha         -31.30903178 eV
  | Energy correction for multipole
  | error in Hartree potential    :          -0.00000624 Ha          -0.00016967 eV
  | Sum of eigenvalues per atom                           :         -13.33419253 eV
  | Total energy (T->0) per atom                          :         -13.48124233 eV  <-- do not rely on this value for anything but (periodic) metals
  | Electronic free energy per atom                       :         -13.48124233 eV

  Self-consistency convergence accuracy:
  | Change of charge/spin density : 0.1574E+00 0.2824E+00
  | Change of sum of eigenvalues  : -.8634E+00 eV
  | Change of total energy        : -.1535E+00 eV

  End self-consistency iteration #     4       :  max(cpu_time)    wall_clock(cpu1)
  | Time for this iteration                    :        0.026 s           0.025 s
  | Charge density update                      :        0.006 s           0.006 s
  | Density mixing                             :        0.001 s           0.001 s
  | Hartree multipole update                   :        0.001 s           0.002 s
  | Hartree multipole summation                :        0.005 s           0.005 s
  | Integration                                :        0.009 s           0.009 s
  | Solution of K.-S. eqns.                    :        0.001 s           0.001 s
  | Total energy evaluation                    :        0.000 s           0.000 s
------------------------------------------------------------

------------------------------------------------------------
          Begin self-consistency iteration #    5

  Date     :  20220120, Time     :  152411.491
------------------------------------------------------------
  Evaluating new KS density.
  Integration grid: deviation in total charge (<rho> - N_e) =   1.774338E-07
  | <rho_up-rho_dn> = N_up-N_dn =     -1.7410; <|rho_up-rho_dn|> =      1.7410
  Pulay mixing of updated and previous charge densities.

  Evaluating partitioned Hartree potential by multipole expansion.
  | Analytical far-field extrapolation by fixed multipoles:
  | Hartree multipole sum: apparent total charge =  -0.117910E-04
  Summing up the Hartree potential.
  Time summed over all CPUs for potential: real work        0.033 s, elapsed        0.034 s
  | RMS charge density error from multipole expansion :   0.376741E-02

  Integrating Hamiltonian matrix: batch-based integration.
  Time summed over all CPUs for integration: real work        0.070 s, elapsed        0.076 s

  Updating Kohn-Sham eigenvalues, eigenvectors, occupation numbers, and Fermi level.
  Solving generalized eigenproblem
  Solving real symmetric generalised eigenvalue problem by standard ScaLAPACK.
  Using Cholesky factor for transformation
  Using 1-stage real ELPA solver
  Solving real symmetric generalised eigenvalue problem by standard ScaLAPACK.
  Using Cholesky factor for transformation
  Using 1-stage real ELPA solver
  Determining occupation numbers for Kohn-Sham eigenstates.
  | Chemical potential (Fermi level) in eV                 : -.15729404E+02
  | Error in electron count due to remaining E_F inaccuracy: 0.00000000E+00
  | Maximum occupation number of highest empty state:  0.00E+00

  Current spin moment of the entire structure :
  | N = N_up - N_down :    0.00
  | S                 :    0.00
  | J                 :    1.00

  Highest occupied state (VBM) at    -17.14518873 eV
  | Occupation number:      1.00000000
  | Spin channel:        2

  Lowest unoccupied state (CBM) at    -1.57496756 eV
  | Occupation number:      0.00000000
  | Spin channel:        1

  Overall HOMO-LUMO gap:     15.57022117 eV.

  Total energy components:
  | Sum of eigenvalues            :          -1.30682459 Ha         -35.56050646 eV
  | XC energy correction          :          -0.61161065 Ha         -16.64277251 eV
  | XC potential correction       :           0.78551071 Ha          21.37483386 eV
  | Free-atom electrostatic energy:          -0.22871010 Ha          -6.22351842 eV
  | Hartree energy correction     :           0.16433199 Ha           4.47170090 eV
  | van der Waals energy corr.    :           0.00000000 Ha           0.00000000 eV
  | Entropy correction            :           0.00000000 Ha           0.00000000 eV
  | ---------------------------
  | Total energy                  :          -1.19730265 Ha         -32.58026264 eV
  | Total energy, T -> 0          :          -1.19730265 Ha         -32.58026264 eV  <-- do not rely on this value for anything but (periodic) metals
  | Electronic free energy        :          -1.19730265 Ha         -32.58026264 eV

  Derived energy quantities:
  | Kinetic energy                :          -0.53778268 Ha         -14.63381131 eV
  | Electrostatic energy          :          -0.04790932 Ha          -1.30367881 eV
  | Energy correction for multipole
  | error in Hartree potential    :           0.00080348 Ha           0.02186367 eV
  | Sum of eigenvalues per atom                           :         -17.78025323 eV
  | Total energy (T->0) per atom                          :         -16.29013132 eV  <-- do not rely on this value for anything but (periodic) metals
  | Electronic free energy per atom                       :         -16.29013132 eV

  Self-consistency convergence accuracy:
  | Change of charge/spin density : 0.1899E+00 0.2511E+00
  | Change of sum of eigenvalues  : -.8892E+01 eV
  | Change of total energy        : -.5618E+01 eV

  End self-consistency iteration #     5       :  max(cpu_time)    wall_clock(cpu1)
  | Time for this iteration                    :        0.026 s           0.026 s
  | Charge density update                      :        0.006 s           0.006 s
  | Density mixing                             :        0.002 s           0.001 s
  | Hartree multipole update                   :        0.001 s           0.002 s
  | Hartree multipole summation                :        0.005 s           0.004 s
  | Integration                                :        0.010 s           0.009 s
  | Solution of K.-S. eqns.                    :        0.001 s           0.002 s
  | Total energy evaluation                    :        0.000 s           0.001 s
------------------------------------------------------------

------------------------------------------------------------
          Begin self-consistency iteration #    6

  Date     :  20220120, Time     :  152411.520
------------------------------------------------------------
  Evaluating new KS density.
  Integration grid: deviation in total charge (<rho> - N_e) =   8.734456E-08
  | <rho_up-rho_dn> = N_up-N_dn =     -0.6689; <|rho_up-rho_dn|> =      0.9667
  Pulay mixing of updated and previous charge densities.

  Evaluating partitioned Hartree potential by multipole expansion.
  | Analytical far-field extrapolation by fixed multipoles:
  | Hartree multipole sum: apparent total charge =  -0.122793E-04
  Summing up the Hartree potential.
  Time summed over all CPUs for potential: real work        0.033 s, elapsed        0.034 s
  | RMS charge density error from multipole expansion :   0.592873E-02

  Integrating Hamiltonian matrix: batch-based integration.
  Time summed over all CPUs for integration: real work        0.072 s, elapsed        0.077 s

  Updating Kohn-Sham eigenvalues, eigenvectors, occupation numbers, and Fermi level.
  Solving generalized eigenproblem
  Solving real symmetric generalised eigenvalue problem by standard ScaLAPACK.
  Using Cholesky factor for transformation
  Using 1-stage real ELPA solver
  Solving real symmetric generalised eigenvalue problem by standard ScaLAPACK.
  Using Cholesky factor for transformation
  Using 1-stage real ELPA solver
  Determining occupation numbers for Kohn-Sham eigenstates.
  | Chemical potential (Fermi level) in eV                 : -.19017591E+02
  | Error in electron count due to remaining E_F inaccuracy: 0.00000000E+00
  | Maximum occupation number of highest empty state:  0.00E+00

  Current spin moment of the entire structure :
  | N = N_up - N_down :    0.00
  | S                 :    0.00
  | J                 :    1.00

  Highest occupied state (VBM) at    -20.86277957 eV
  | Occupation number:      1.00000000
  | Spin channel:        2

  Lowest unoccupied state (CBM) at    -2.45419243 eV
  | Occupation number:      0.00000000
  | Spin channel:        1

  Overall HOMO-LUMO gap:     18.40858714 eV.

  Total energy components:
  | Sum of eigenvalues            :          -1.57049030 Ha         -42.73521528 eV
  | XC energy correction          :          -0.69647844 Ha         -18.95214271 eV
  | XC potential correction       :           0.89504044 Ha          24.35528945 eV
  | Free-atom electrostatic energy:          -0.22871010 Ha          -6.22351842 eV
  | Hartree energy correction     :           0.13431385 Ha           3.65486592 eV
  | van der Waals energy corr.    :           0.00000000 Ha           0.00000000 eV
  | Entropy correction            :           0.00000000 Ha           0.00000000 eV
  | ---------------------------
  | Total energy                  :          -1.46632455 Ha         -39.90072103 eV
  | Total energy, T -> 0          :          -1.46632455 Ha         -39.90072103 eV  <-- do not rely on this value for anything but (periodic) metals
  | Electronic free energy        :          -1.46632455 Ha         -39.90072103 eV

  Derived energy quantities:
  | Kinetic energy                :          -1.48620246 Ha         -40.44162645 eV
  | Electrostatic energy          :           0.71635635 Ha          19.49304813 eV
  | Energy correction for multipole
  | error in Hartree potential    :           0.00128161 Ha           0.03487448 eV
  | Sum of eigenvalues per atom                           :         -21.36760764 eV
  | Total energy (T->0) per atom                          :         -19.95036052 eV  <-- do not rely on this value for anything but (periodic) metals
  | Electronic free energy per atom                       :         -19.95036052 eV

  Self-consistency convergence accuracy:
  | Change of charge/spin density : 0.6210E+00 0.1808E+00
  | Change of sum of eigenvalues  : -.7175E+01 eV
  | Change of total energy        : -.7320E+01 eV

  End self-consistency iteration #     6       :  max(cpu_time)    wall_clock(cpu1)
  | Time for this iteration                    :        0.027 s           0.026 s
  | Charge density update                      :        0.006 s           0.006 s
  | Density mixing                             :        0.002 s           0.002 s
  | Hartree multipole update                   :        0.001 s           0.001 s
  | Hartree multipole summation                :        0.005 s           0.005 s
  | Integration                                :        0.010 s           0.010 s
  | Solution of K.-S. eqns.                    :        0.001 s           0.001 s
  | Total energy evaluation                    :        0.000 s           0.001 s
------------------------------------------------------------

------------------------------------------------------------
          Begin self-consistency iteration #    7

  Date     :  20220120, Time     :  152411.550
------------------------------------------------------------
  Evaluating new KS density.
  Integration grid: deviation in total charge (<rho> - N_e) =   5.616801E-08
  | <rho_up-rho_dn> = N_up-N_dn =     -0.3612; <|rho_up-rho_dn|> =      0.9922
  Pulay mixing of updated and previous charge densities.

  Evaluating partitioned Hartree potential by multipole expansion.
  | Analytical far-field extrapolation by fixed multipoles:
  | Hartree multipole sum: apparent total charge =  -0.156419E-04
  Summing up the Hartree potential.
  Time summed over all CPUs for potential: real work        0.033 s, elapsed        0.034 s
  | RMS charge density error from multipole expansion :   0.103933E-01

  Integrating Hamiltonian matrix: batch-based integration.
  Time summed over all CPUs for integration: real work        0.074 s, elapsed        0.081 s

  Updating Kohn-Sham eigenvalues, eigenvectors, occupation numbers, and Fermi level.
  Solving generalized eigenproblem
  Solving real symmetric generalised eigenvalue problem by standard ScaLAPACK.
  Using Cholesky factor for transformation
  Using 1-stage real ELPA solver
  Solving real symmetric generalised eigenvalue problem by standard ScaLAPACK.
  Using Cholesky factor for transformation
  Using 1-stage real ELPA solver
  Determining occupation numbers for Kohn-Sham eigenstates.
  | Chemical potential (Fermi level) in eV                 : -.28733338E+02
  | Error in electron count due to remaining E_F inaccuracy: 0.00000000E+00
  | Maximum occupation number of highest empty state:  0.00E+00

  Current spin moment of the entire structure :
  | N = N_up - N_down :    0.00
  | S                 :    0.00
  | J                 :    1.00

  Highest occupied state (VBM) at    -31.20694362 eV
  | Occupation number:      1.00000000
  | Spin channel:        2

  Lowest unoccupied state (CBM) at    -5.68291323 eV
  | Occupation number:      0.00000000
  | Spin channel:        1

  Overall HOMO-LUMO gap:     25.52403038 eV.

  Total energy components:
  | Sum of eigenvalues            :          -2.32882256 Ha         -63.37048617 eV
  | XC energy correction          :          -0.90483891 Ha         -24.62191939 eV
  | XC potential correction       :           1.16428772 Ha          31.68188079 eV
  | Free-atom electrostatic energy:          -0.22871010 Ha          -6.22351842 eV
  | Hartree energy correction     :          -0.20124174 Ha          -5.47606641 eV
  | van der Waals energy corr.    :           0.00000000 Ha           0.00000000 eV
  | Entropy correction            :           0.00000000 Ha           0.00000000 eV
  | ---------------------------
  | Total energy                  :          -2.49932559 Ha         -68.01010961 eV
  | Total energy, T -> 0          :          -2.49932559 Ha         -68.01010961 eV  <-- do not rely on this value for anything but (periodic) metals
  | Electronic free energy        :          -2.49932559 Ha         -68.01010961 eV

  Derived energy quantities:
  | Kinetic energy                :          -4.27584798 Ha        -116.35174342 eV
  | Electrostatic energy          :           2.68136130 Ha          72.96355321 eV
  | Energy correction for multipole
  | error in Hartree potential    :           0.00226319 Ha           0.06158455 eV
  | Sum of eigenvalues per atom                           :         -31.68524309 eV
  | Total energy (T->0) per atom                          :         -34.00505480 eV  <-- do not rely on this value for anything but (periodic) metals
  | Electronic free energy per atom                       :         -34.00505480 eV

  Self-consistency convergence accuracy:
  | Change of charge/spin density : 0.8931E+00 0.2778E+00
  | Change of sum of eigenvalues  : -.2064E+02 eV
  | Change of total energy        : -.2811E+02 eV

  End self-consistency iteration #     7       :  max(cpu_time)    wall_clock(cpu1)
  | Time for this iteration                    :        0.027 s           0.027 s
  | Charge density update                      :        0.006 s           0.006 s
  | Density mixing                             :        0.002 s           0.002 s
  | Hartree multipole update                   :        0.001 s           0.001 s
  | Hartree multipole summation                :        0.005 s           0.005 s
  | Integration                                :        0.010 s           0.010 s
  | Solution of K.-S. eqns.                    :        0.001 s           0.002 s
  | Total energy evaluation                    :        0.000 s           0.001 s
------------------------------------------------------------

------------------------------------------------------------
          Begin self-consistency iteration #    8

  Date     :  20220120, Time     :  152411.580
------------------------------------------------------------
  Evaluating new KS density.
  Integration grid: deviation in total charge (<rho> - N_e) =   2.741842E-08
  | <rho_up-rho_dn> = N_up-N_dn =     -0.1463; <|rho_up-rho_dn|> =      1.4216
  Pulay mixing of updated and previous charge densities.

  Evaluating partitioned Hartree potential by multipole expansion.
  | Analytical far-field extrapolation by fixed multipoles:
  | Hartree multipole sum: apparent total charge =  -0.179577E-04
  Summing up the Hartree potential.
  Time summed over all CPUs for potential: real work        0.033 s, elapsed        0.034 s
  | RMS charge density error from multipole expansion :   0.124825E-01

  Integrating Hamiltonian matrix: batch-based integration.
  Time summed over all CPUs for integration: real work        0.071 s, elapsed        0.076 s

  Updating Kohn-Sham eigenvalues, eigenvectors, occupation numbers, and Fermi level.
  Solving generalized eigenproblem
  Solving real symmetric generalised eigenvalue problem by standard ScaLAPACK.
  Using Cholesky factor for transformation
  Using 1-stage real ELPA solver
  Solving real symmetric generalised eigenvalue problem by standard ScaLAPACK.
  Using Cholesky factor for transformation
  Using 1-stage real ELPA solver
  Determining occupation numbers for Kohn-Sham eigenstates.
  | Chemical potential (Fermi level) in eV                 : -.34471068E+02
  | Error in electron count due to remaining E_F inaccuracy: 0.00000000E+00
  | Maximum occupation number of highest empty state:  0.00E+00

  Current spin moment of the entire structure :
  | N = N_up - N_down :    0.00
  | S                 :    0.00
  | J                 :    1.00

  Highest occupied state (VBM) at    -37.42638319 eV
  | Occupation number:      1.00000000
  | Spin channel:        2

  Lowest unoccupied state (CBM) at    -7.93685008 eV
  | Occupation number:      0.00000000
  | Spin channel:        1

  Overall HOMO-LUMO gap:     29.48953311 eV.

  Total energy components:
  | Sum of eigenvalues            :          -2.78156790 Ha         -75.69031363 eV
  | XC energy correction          :          -1.02233074 Ha         -27.81903475 eV
  | XC potential correction       :           1.31626602 Ha          35.81742078 eV
  | Free-atom electrostatic energy:          -0.22871010 Ha          -6.22351842 eV
  | Hartree energy correction     :          -0.53486215 Ha         -14.55433973 eV
  | van der Waals energy corr.    :           0.00000000 Ha           0.00000000 eV
  | Entropy correction            :           0.00000000 Ha           0.00000000 eV
  | ---------------------------
  | Total energy                  :          -3.25120487 Ha         -88.46978576 eV
  | Total energy, T -> 0          :          -3.25120487 Ha         -88.46978576 eV  <-- do not rely on this value for anything but (periodic) metals
  | Electronic free energy        :          -3.25120487 Ha         -88.46978576 eV

  Derived energy quantities:
  | Kinetic energy                :          -6.07396887 Ha        -165.28110229 eV
  | Electrostatic energy          :           3.84509474 Ha         104.63035128 eV
  | Energy correction for multipole
  | error in Hartree potential    :           0.00270664 Ha           0.07365155 eV
  | Sum of eigenvalues per atom                           :         -37.84515682 eV
  | Total energy (T->0) per atom                          :         -44.23489288 eV  <-- do not rely on this value for anything but (periodic) metals
  | Electronic free energy per atom                       :         -44.23489288 eV

  Self-consistency convergence accuracy:
  | Change of charge/spin density : 0.1485E+01 0.4746E+00
  | Change of sum of eigenvalues  : -.1232E+02 eV
  | Change of total energy        : -.2046E+02 eV

  End self-consistency iteration #     8       :  max(cpu_time)    wall_clock(cpu1)
  | Time for this iteration                    :        0.027 s           0.026 s
  | Charge density update                      :        0.006 s           0.006 s
  | Density mixing                             :        0.002 s           0.002 s
  | Hartree multipole update                   :        0.001 s           0.001 s
  | Hartree multipole summation                :        0.005 s           0.005 s
  | Integration                                :        0.010 s           0.010 s
  | Solution of K.-S. eqns.                    :        0.001 s           0.001 s
  | Total energy evaluation                    :        0.000 s           0.000 s
------------------------------------------------------------

------------------------------------------------------------
          Begin self-consistency iteration #    9

  Date     :  20220120, Time     :  152411.610
------------------------------------------------------------
  Evaluating new KS density.
  Integration grid: deviation in total charge (<rho> - N_e) =   2.150147E-08
  | <rho_up-rho_dn> = N_up-N_dn =     -0.0613; <|rho_up-rho_dn|> =      1.7066
  Pulay mixing of updated and previous charge densities.

  Evaluating partitioned Hartree potential by multipole expansion.
  | Analytical far-field extrapolation by fixed multipoles:
  | Hartree multipole sum: apparent total charge =  -0.129499E-04
  Summing up the Hartree potential.
  Time summed over all CPUs for potential: real work        0.033 s, elapsed        0.034 s
  | RMS charge density error from multipole expansion :   0.882569E-02

  Integrating Hamiltonian matrix: batch-based integration.
  Time summed over all CPUs for integration: real work        0.071 s, elapsed        0.077 s

  Updating Kohn-Sham eigenvalues, eigenvectors, occupation numbers, and Fermi level.
  Solving generalized eigenproblem
  Solving real symmetric generalised eigenvalue problem by standard ScaLAPACK.
  Using Cholesky factor for transformation
  Using 1-stage real ELPA solver
  Solving real symmetric generalised eigenvalue problem by standard ScaLAPACK.
  Using Cholesky factor for transformation
  Using 1-stage real ELPA solver
  Determining occupation numbers for Kohn-Sham eigenstates.
  | Chemical potential (Fermi level) in eV                 : -.24208052E+02
  | Error in electron count due to remaining E_F inaccuracy: 0.00000000E+00
  | Maximum occupation number of highest empty state:  0.00E+00

  Current spin moment of the entire structure :
  | N = N_up - N_down :    0.00
  | S                 :    0.00
  | J                 :    1.00

  Highest occupied state (VBM) at    -26.55232760 eV
  | Occupation number:      1.00000000
  | Spin channel:        2

  Lowest unoccupied state (CBM) at    -3.93865801 eV
  | Occupation number:      0.00000000
  | Spin channel:        1

  Overall HOMO-LUMO gap:     22.61366960 eV.

  Total energy components:
  | Sum of eigenvalues            :          -1.98155737 Ha         -53.92091951 eV
  | XC energy correction          :          -0.83179816 Ha         -22.63437949 eV
  | XC potential correction       :           1.06975817 Ha          29.10960088 eV
  | Free-atom electrostatic energy:          -0.22871010 Ha          -6.22351842 eV
  | Hartree energy correction     :          -0.03905551 Ha          -1.06275453 eV
  | van der Waals energy corr.    :           0.00000000 Ha           0.00000000 eV
  | Entropy correction            :           0.00000000 Ha           0.00000000 eV
  | ---------------------------
  | Total energy                  :          -2.01136297 Ha         -54.73197106 eV
  | Total energy, T -> 0          :          -2.01136297 Ha         -54.73197106 eV  <-- do not rely on this value for anything but (periodic) metals
  | Electronic free energy        :          -2.01136297 Ha         -54.73197106 eV

  Derived energy quantities:
  | Kinetic energy                :          -3.02220483 Ha         -82.23837756 eV
  | Electrostatic energy          :           1.84264002 Ha          50.14078599 eV
  | Energy correction for multipole
  | error in Hartree potential    :           0.00196159 Ha           0.05337771 eV
  | Sum of eigenvalues per atom                           :         -26.96045975 eV
  | Total energy (T->0) per atom                          :         -27.36598553 eV  <-- do not rely on this value for anything but (periodic) metals
  | Electronic free energy per atom                       :         -27.36598553 eV

  Self-consistency convergence accuracy:
  | Change of charge/spin density : 0.1781E+01 0.5888E+00
  | Change of sum of eigenvalues  : 0.2177E+02 eV
  | Change of total energy        : 0.3374E+02 eV

  End self-consistency iteration #     9       :  max(cpu_time)    wall_clock(cpu1)
  | Time for this iteration                    :        0.027 s           0.026 s
  | Charge density update                      :        0.006 s           0.005 s
  | Density mixing                             :        0.002 s           0.002 s
  | Hartree multipole update                   :        0.001 s           0.001 s
  | Hartree multipole summation                :        0.005 s           0.005 s
  | Integration                                :        0.010 s           0.009 s
  | Solution of K.-S. eqns.                    :        0.001 s           0.002 s
  | Total energy evaluation                    :        0.000 s           0.001 s
------------------------------------------------------------

------------------------------------------------------------
          Begin self-consistency iteration #   10

  Date     :  20220120, Time     :  152411.640
------------------------------------------------------------
  Evaluating new KS density.
  Integration grid: deviation in total charge (<rho> - N_e) =   1.613436E-08
  | <rho_up-rho_dn> = N_up-N_dn =     -0.0490; <|rho_up-rho_dn|> =      1.2111
  Pulay mixing of updated and previous charge densities.

  Evaluating partitioned Hartree potential by multipole expansion.
  | Analytical far-field extrapolation by fixed multipoles:
  | Hartree multipole sum: apparent total charge =   0.410803E-05
  Summing up the Hartree potential.
  Time summed over all CPUs for potential: real work        0.033 s, elapsed        0.034 s
  | RMS charge density error from multipole expansion :   0.448134E-02

  Integrating Hamiltonian matrix: batch-based integration.
  Time summed over all CPUs for integration: real work        0.065 s, elapsed        0.069 s

  Updating Kohn-Sham eigenvalues, eigenvectors, occupation numbers, and Fermi level.
  Solving generalized eigenproblem
  Solving real symmetric generalised eigenvalue problem by standard ScaLAPACK.
  Using Cholesky factor for transformation
  Using 1-stage real ELPA solver
  Solving real symmetric generalised eigenvalue problem by standard ScaLAPACK.
  Using Cholesky factor for transformation
  Using 1-stage real ELPA solver
  Determining occupation numbers for Kohn-Sham eigenstates.
  | Chemical potential (Fermi level) in eV                 : -.91088658E+00
  | Error in electron count due to remaining E_F inaccuracy: 0.00000000E+00
  | Maximum occupation number of highest empty state:  0.00E+00

  Current spin moment of the entire structure :
  | N = N_up - N_down :    0.00
  | S                 :    0.00
  | J                 :    1.00

  Highest occupied state (VBM) at     -2.98819169 eV
  | Occupation number:      1.00000000
  | Spin channel:        2

  Lowest unoccupied state (CBM) at     2.64030538 eV
  | Occupation number:      0.00000000
  | Spin channel:        2

  Overall HOMO-LUMO gap:      5.62849707 eV.

  Total energy components:
  | Sum of eigenvalues            :          -0.22338163 Ha          -6.07852347 eV
  | XC energy correction          :          -1.13664747 Ha         -30.92975129 eV
  | XC potential correction       :           1.46399946 Ha          39.83745234 eV
  | Free-atom electrostatic energy:          -0.22871010 Ha          -6.22351842 eV
  | Hartree energy correction     :          -1.11930382 Ha         -30.45780662 eV
  | van der Waals energy corr.    :           0.00000000 Ha           0.00000000 eV
  | Entropy correction            :           0.00000000 Ha           0.00000000 eV
  | ---------------------------
  | Total energy                  :          -1.24404355 Ha         -33.85214746 eV
  | Total energy, T -> 0          :          -1.24404355 Ha         -33.85214746 eV  <-- do not rely on this value for anything but (periodic) metals
  | Electronic free energy        :          -1.24404355 Ha         -33.85214746 eV

  Derived energy quantities:
  | Kinetic energy                :           2.21451045 Ha          60.25989524 eV
  | Electrostatic energy          :          -2.32190653 Ha         -63.18229142 eV
  | Energy correction for multipole
  | error in Hartree potential    :          -0.00050161 Ha          -0.01364961 eV
  | Sum of eigenvalues per atom                           :          -3.03926174 eV
  | Total energy (T->0) per atom                          :         -16.92607373 eV  <-- do not rely on this value for anything but (periodic) metals
  | Electronic free energy per atom                       :         -16.92607373 eV

  Self-consistency convergence accuracy:
  | Change of charge/spin density : 0.1258E+01 0.4215E+00
  | Change of sum of eigenvalues  : 0.4784E+02 eV
  | Change of total energy        : 0.2088E+02 eV

  End self-consistency iteration #    10       :  max(cpu_time)    wall_clock(cpu1)
  | Time for this iteration                    :        0.026 s           0.025 s
  | Charge density update                      :        0.007 s           0.006 s
  | Density mixing                             :        0.002 s           0.002 s
  | Hartree multipole update                   :        0.001 s           0.001 s
  | Hartree multipole summation                :        0.005 s           0.005 s
  | Integration                                :        0.009 s           0.009 s
  | Solution of K.-S. eqns.                    :        0.001 s           0.001 s
  | Total energy evaluation                    :        0.000 s           0.000 s
------------------------------------------------------------

------------------------------------------------------------
          Begin self-consistency iteration #   11

  Date     :  20220120, Time     :  152411.670
------------------------------------------------------------
  Evaluating new KS density.
  Integration grid: deviation in total charge (<rho> - N_e) =   5.415050E-09
  | <rho_up-rho_dn> = N_up-N_dn =     -0.0030; <|rho_up-rho_dn|> =      0.5140
  Pulay mixing of updated and previous charge densities.

  Evaluating partitioned Hartree potential by multipole expansion.
  | Analytical far-field extrapolation by fixed multipoles:
  | Hartree multipole sum: apparent total charge =   0.876506E-05
  Summing up the Hartree potential.
  Time summed over all CPUs for potential: real work        0.033 s, elapsed        0.034 s
  | RMS charge density error from multipole expansion :   0.707971E-02

  Integrating Hamiltonian matrix: batch-based integration.
  Time summed over all CPUs for integration: real work        0.062 s, elapsed        0.067 s

  Updating Kohn-Sham eigenvalues, eigenvectors, occupation numbers, and Fermi level.
  Solving generalized eigenproblem
  Solving real symmetric generalised eigenvalue problem by standard ScaLAPACK.
  Using Cholesky factor for transformation
  Using 1-stage real ELPA solver
  Solving real symmetric generalised eigenvalue problem by standard ScaLAPACK.
  Using Cholesky factor for transformation
  Using 1-stage real ELPA solver
  Determining occupation numbers for Kohn-Sham eigenstates.
  | Chemical potential (Fermi level) in eV                 : 0.18338331E+01
  | Error in electron count due to remaining E_F inaccuracy: 0.00000000E+00
  | Maximum occupation number of highest empty state:  0.00E+00

  Current spin moment of the entire structure :
  | N = N_up - N_down :    0.00
  | S                 :    0.00
  | J                 :    1.00

  Highest occupied state (VBM) at      1.03219732 eV
  | Occupation number:      1.00000000
  | Spin channel:        2
 * WARNING: The VBM is higher than the internal energy zero!

  Lowest unoccupied state (CBM) at     2.82092467 eV
  | Occupation number:      0.00000000
  | Spin channel:        2

  Overall HOMO-LUMO gap:      1.78872736 eV.

  Total energy components:
  | Sum of eigenvalues            :           0.07331902 Ha           1.99511209 eV
  | XC energy correction          :          -1.54870934 Ha         -42.14252529 eV
  | XC potential correction       :           1.99951738 Ha          54.40963617 eV
  | Free-atom electrostatic energy:          -0.22871010 Ha          -6.22351842 eV
  | Hartree energy correction     :          -2.00863723 Ha         -54.65780009 eV
  | van der Waals energy corr.    :           0.00000000 Ha           0.00000000 eV
  | Entropy correction            :           0.00000000 Ha           0.00000000 eV
  | ---------------------------
  | Total energy                  :          -1.71322027 Ha         -46.61909555 eV
  | Total energy, T -> 0          :          -1.71322027 Ha         -46.61909555 eV  <-- do not rely on this value for anything but (periodic) metals
  | Electronic free energy        :          -1.71322027 Ha         -46.61909555 eV

  Derived energy quantities:
  | Kinetic energy                :           2.45070560 Ha          66.68709241 eV
  | Electrostatic energy          :          -2.61521653 Ha         -71.16366267 eV
  | Energy correction for multipole
  | error in Hartree potential    :          -0.00083754 Ha          -0.02279070 eV
  | Sum of eigenvalues per atom                           :           0.99755605 eV
  | Total energy (T->0) per atom                          :         -23.30954777 eV  <-- do not rely on this value for anything but (periodic) metals
[...]
  | Change of sum of eigenvalues  : -.1331E-02 eV
  | Change of total energy        : 0.1518E-07 eV

  End self-consistency iteration #    26       :  max(cpu_time)    wall_clock(cpu1)
  | Time for this iteration                    :        0.027 s           0.027 s
  | Charge density update                      :        0.007 s           0.006 s
  | Density mixing                             :        0.002 s           0.002 s
  | Hartree multipole update                   :        0.001 s           0.001 s
  | Hartree multipole summation                :        0.005 s           0.005 s
  | Integration                                :        0.010 s           0.010 s
  | Solution of K.-S. eqns.                    :        0.001 s           0.001 s
  | Total energy evaluation                    :        0.000 s           0.000 s
------------------------------------------------------------

------------------------------------------------------------
          Begin self-consistency iteration #   27

  Date     :  20220120, Time     :  152412.150
------------------------------------------------------------
  Evaluating new KS density.
  Integration grid: deviation in total charge (<rho> - N_e) =  -3.913314E-12
  | <rho_up-rho_dn> = N_up-N_dn =      0.0000; <|rho_up-rho_dn|> =      0.0000
  Pulay mixing of updated and previous charge densities.

  Evaluating partitioned Hartree potential by multipole expansion.
  | Analytical far-field extrapolation by fixed multipoles:
  | Hartree multipole sum: apparent total charge =   0.967060E-06
  Summing up the Hartree potential.
  Time summed over all CPUs for potential: real work        0.033 s, elapsed        0.034 s
  | RMS charge density error from multipole expansion :   0.155182E-02

  Integrating Hamiltonian matrix: batch-based integration.
  Time summed over all CPUs for integration: real work        0.076 s, elapsed        0.084 s

  Updating Kohn-Sham eigenvalues, eigenvectors, occupation numbers, and Fermi level.
  Solving generalized eigenproblem
  Solving real symmetric generalised eigenvalue problem by standard ScaLAPACK.
  Using Cholesky factor for transformation
  Using 1-stage real ELPA solver
  Solving real symmetric generalised eigenvalue problem by standard ScaLAPACK.
  Using Cholesky factor for transformation
  Using 1-stage real ELPA solver
  Determining occupation numbers for Kohn-Sham eigenstates.
  | Chemical potential (Fermi level) in eV                 : -.93855537E+01
  | Error in electron count due to remaining E_F inaccuracy: 0.00000000E+00
  | Maximum occupation number of highest empty state:  0.00E+00

  Current spin moment of the entire structure :
  | N = N_up - N_down :    0.00
  | S                 :    0.00
  | J                 :    1.00

  Highest occupied state (VBM) at    -11.02261630 eV
  | Occupation number:      1.00000000
  | Spin channel:        2

  Lowest unoccupied state (CBM) at     0.95324013 eV
  | Occupation number:      0.00000000
  | Spin channel:        1

  Overall HOMO-LUMO gap:     11.97585642 eV.

  Total energy components:
  | Sum of eigenvalues            :          -0.81014758 Ha         -22.04523720 eV
  | XC energy correction          :          -0.73309581 Ha         -19.94855195 eV
  | XC potential correction       :           0.94100148 Ha          25.60595313 eV
  | Free-atom electrostatic energy:          -0.22871010 Ha          -6.22351842 eV
  | Hartree energy correction     :          -0.32136213 Ha          -8.74470858 eV
  | van der Waals energy corr.    :           0.00000000 Ha           0.00000000 eV
  | Entropy correction            :           0.00000000 Ha           0.00000000 eV
  | ---------------------------
  | Total energy                  :          -1.15231414 Ha         -31.35606302 eV
  | Total energy, T -> 0          :          -1.15231414 Ha         -31.35606302 eV  <-- do not rely on this value for anything but (periodic) metals
  | Electronic free energy        :          -1.15231414 Ha         -31.35606302 eV

  Derived energy quantities:
  | Kinetic energy                :           1.27537001 Ha          34.70458373 eV
  | Electrostatic energy          :          -1.69458834 Ha         -46.11209480 eV
  | Energy correction for multipole
  | error in Hartree potential    :          -0.00005799 Ha          -0.00157812 eV
  | Sum of eigenvalues per atom                           :         -11.02261860 eV
  | Total energy (T->0) per atom                          :         -15.67803151 eV  <-- do not rely on this value for anything but (periodic) metals
  | Electronic free energy per atom                       :         -15.67803151 eV

  Self-consistency convergence accuracy:
  | Change of charge/spin density : 0.4414E-05 0.1708E-05
  | Change of sum of eigenvalues  : -.6682E-04 eV
  | Change of total energy        : 0.3272E-08 eV

  End self-consistency iteration #    27       :  max(cpu_time)    wall_clock(cpu1)
  | Time for this iteration                    :        0.028 s           0.028 s
  | Charge density update                      :        0.007 s           0.006 s
  | Density mixing                             :        0.002 s           0.002 s
  | Hartree multipole update                   :        0.001 s           0.001 s
  | Hartree multipole summation                :        0.005 s           0.005 s
  | Integration                                :        0.011 s           0.010 s
  | Solution of K.-S. eqns.                    :        0.001 s           0.002 s
  | Total energy evaluation                    :        0.000 s           0.001 s
------------------------------------------------------------

------------------------------------------------------------
          Begin self-consistency iteration #   28

  Date     :  20220120, Time     :  152412.180
------------------------------------------------------------
  Evaluating new KS density.
  Integration grid: deviation in total charge (<rho> - N_e) =   9.503509E-13
  | <rho_up-rho_dn> = N_up-N_dn =     -0.0000; <|rho_up-rho_dn|> =      0.0000
  Pulay mixing of updated and previous charge densities.

  Evaluating partitioned Hartree potential by multipole expansion.
  | Analytical far-field extrapolation by fixed multipoles:
  | Hartree multipole sum: apparent total charge =   0.967263E-06
  Summing up the Hartree potential.
  Time summed over all CPUs for potential: real work        0.033 s, elapsed        0.034 s
  | RMS charge density error from multipole expansion :   0.155183E-02

  Integrating Hamiltonian matrix: batch-based integration.
  Time summed over all CPUs for integration: real work        0.075 s, elapsed        0.079 s

  Updating Kohn-Sham eigenvalues, eigenvectors, occupation numbers, and Fermi level.
  Solving generalized eigenproblem
  Solving real symmetric generalised eigenvalue problem by standard ScaLAPACK.
  Using Cholesky factor for transformation
  Using 1-stage real ELPA solver
  Solving real symmetric generalised eigenvalue problem by standard ScaLAPACK.
  Using Cholesky factor for transformation
  Using 1-stage real ELPA solver
  Determining occupation numbers for Kohn-Sham eigenstates.
  | Chemical potential (Fermi level) in eV                 : -.93883609E+01
  | Error in electron count due to remaining E_F inaccuracy: 0.00000000E+00
  | Maximum occupation number of highest empty state:  0.00E+00

  Current spin moment of the entire structure :
  | N = N_up - N_down :    0.00
  | S                 :    0.00
  | J                 :    1.00

  Highest occupied state (VBM) at    -11.02261834 eV
  | Occupation number:      1.00000000
  | Spin channel:        2

  Lowest unoccupied state (CBM) at     0.95330201 eV
  | Occupation number:      0.00000000
  | Spin channel:        1

  Overall HOMO-LUMO gap:     11.97592034 eV.

  Total energy components:
  | Sum of eigenvalues            :          -0.81014760 Ha         -22.04523797 eV
  | XC energy correction          :          -0.73309586 Ha         -19.94855322 eV
  | XC potential correction       :           0.94100150 Ha          25.60595372 eV
  | Free-atom electrostatic energy:          -0.22871010 Ha          -6.22351842 eV
  | Hartree energy correction     :          -0.32136208 Ha          -8.74470713 eV
  | van der Waals energy corr.    :           0.00000000 Ha           0.00000000 eV
  | Entropy correction            :           0.00000000 Ha           0.00000000 eV
  | ---------------------------
  | Total energy                  :          -1.15231414 Ha         -31.35606302 eV
  | Total energy, T -> 0          :          -1.15231414 Ha         -31.35606302 eV  <-- do not rely on this value for anything but (periodic) metals
  | Electronic free energy        :          -1.15231414 Ha         -31.35606302 eV

  Derived energy quantities:
  | Kinetic energy                :           1.27537091 Ha          34.70460814 eV
  | Electrostatic energy          :          -1.69458919 Ha         -46.11211794 eV
  | Energy correction for multipole
  | error in Hartree potential    :          -0.00005800 Ha          -0.00157820 eV
  | Sum of eigenvalues per atom                           :         -11.02261899 eV
  | Total energy (T->0) per atom                          :         -15.67803151 eV  <-- do not rely on this value for anything but (periodic) metals
  | Electronic free energy per atom                       :         -15.67803151 eV

  Self-consistency convergence accuracy:
  | Change of charge/spin density : 0.1379E-05 0.6429E-06
  | Change of sum of eigenvalues  : -.7714E-06 eV
  | Change of total energy        : -.3572E-09 eV

  Writing Kohn-Sham eigenvalues.

  Spin-up eigenvalues:

  State    Occupation    Eigenvalue [Ha]    Eigenvalue [eV]
      1       1.00000          -0.405074          -11.02262
      2       0.00000           0.035033            0.95330
      3       0.00000           0.045868            1.24813
      4       0.00000           0.187563            5.10386
      5       0.00000           0.328625            8.94235
      6       0.00000           0.328625            8.94235
      7       0.00000           0.358595            9.75786
      8       0.00000           0.614745           16.72806
      9       0.00000           0.790202           21.50249
     10       0.00000           0.790202           21.50249
     11       0.00000           0.795284           21.64079

  Spin-down eigenvalues:

  State    Occupation    Eigenvalue [Ha]    Eigenvalue [eV]
      1       1.00000          -0.405074          -11.02262
      2       0.00000           0.035033            0.95331
      3       0.00000           0.045868            1.24812
      4       0.00000           0.187564            5.10388
      5       0.00000           0.328625            8.94235
      6       0.00000           0.328625            8.94235
      7       0.00000           0.358595            9.75786
      8       0.00000           0.614745           16.72806
      9       0.00000           0.790202           21.50249
     10       0.00000           0.790202           21.50249
     11       0.00000           0.795284           21.64079

  Current spin moment of the entire structure :
  | N = N_up - N_down :    0.00
  | S                 :    0.00
  | J                 :    1.00

  Highest occupied state (VBM) at    -11.02261834 eV
  | Occupation number:      1.00000000
  | Spin channel:        2

  Lowest unoccupied state (CBM) at     0.95330201 eV
  | Occupation number:      0.00000000
  | Spin channel:        1

  Overall HOMO-LUMO gap:     11.97592034 eV.

  Self-consistency cycle converged.

  End self-consistency iteration #    28       :  max(cpu_time)    wall_clock(cpu1)
  | Time for this iteration                    :        0.027 s           0.028 s
  | Charge density update                      :        0.007 s           0.007 s
  | Density mixing                             :        0.002 s           0.001 s
  | Hartree multipole update                   :        0.001 s           0.002 s
  | Hartree multipole summation                :        0.005 s           0.004 s
  | Integration                                :        0.010 s           0.011 s
  | Solution of K.-S. eqns.                    :        0.001 s           0.001 s
  | Total energy evaluation                    :        0.000 s           0.001 s
------------------------------------------------------------
  Obtaining max. number of non-zero basis functions in each batch .
  Evaluating KS electron density on previously omitted grid points.
  Evaluating non-empirical van der Waals correction (Tkatchenko/Scheffler 2009).
  Performing Hirshfeld analysis of fragment charges and moments.
  ----------------------------------------------------------------------
  | Atom     1: H
  |   Hirshfeld charge        :     -0.00000055
  |   Free atom volume        :     10.31539447
  |   Hirshfeld volume        :      4.70257662
  |   Hirshfeld spin moment   :      0.00000033
  |   Hirshfeld dipole vector :      0.00000000       0.00000000      -0.07370538
  |   Hirshfeld dipole moment :      0.07370538
  |   Hirshfeld second moments:      0.13878485       0.00000000       0.00000000
  |                                  0.00000000       0.13878485       0.00000000
  |                                  0.00000000       0.00000000       0.13625844
  ----------------------------------------------------------------------
  | Atom     2: H
  |   Hirshfeld charge        :     -0.00000055
  |   Free atom volume        :     10.31539447
  |   Hirshfeld volume        :      4.70257662
  |   Hirshfeld spin moment   :      0.00000033
  |   Hirshfeld dipole vector :     -0.00000000       0.00000000       0.07370538
  |   Hirshfeld dipole moment :      0.07370538
  |   Hirshfeld second moments:      0.13878485       0.00000000       0.00000000
  |                                  0.00000000       0.13878485       0.00000000
  |                                  0.00000000       0.00000000       0.13625844
  ----------------------------------------------------------------------


  Total energy components:
  | Sum of eigenvalues            :          -0.81014760 Ha         -22.04523797 eV
  | XC energy correction          :          -0.73309586 Ha         -19.94855322 eV
  | XC potential correction       :           0.94100150 Ha          25.60595372 eV
  | Free-atom electrostatic energy:          -0.22871010 Ha          -6.22351842 eV
  | Hartree energy correction     :          -0.32136208 Ha          -8.74470713 eV
  | van der Waals energy corr.    :          -0.00000020 Ha          -0.00000544 eV
  | Entropy correction            :           0.00000000 Ha           0.00000000 eV
  | ---------------------------
  | Total energy                  :          -1.15231434 Ha         -31.35606846 eV
  | Total energy, T -> 0          :          -1.15231434 Ha         -31.35606846 eV  <-- do not rely on this value for anything but (periodic) metals
  | Electronic free energy        :          -1.15231434 Ha         -31.35606846 eV

  Derived energy quantities:
  | Kinetic energy                :           1.27537091 Ha          34.70460814 eV
  | Electrostatic energy          :          -1.69458919 Ha         -46.11211794 eV
  | Energy correction for multipole
  | error in Hartree potential    :          -0.00005800 Ha          -0.00157820 eV
  | Sum of eigenvalues per atom                           :         -11.02261899 eV
  | Total energy (T->0) per atom                          :         -15.67803423 eV  <-- do not rely on this value for anything but (periodic) metals
  | Electronic free energy per atom                       :         -15.67803423 eV
  Timings for VdW correction (Tkatchenko-Scheffler 2009 or later):
  | CPU time:        0.002 s, Wall clock time:        0.003 s.

  Energy and forces in a compact form:
  | Total energy uncorrected      :         -0.313560684582519E+02 eV
  | Total energy corrected        :         -0.313560684582519E+02 eV  <-- do not rely on this value for anything but (periodic) metals
  | Electronic free energy        :         -0.313560684582519E+02 eV

  ------------------------------------ 
  Start decomposition of the XC Energy 
  ------------------------------------ 
  Hartree-Fock part   :          0.000000000 Ha              0.000000000 eV
  ------------------------------------ 
  X Energy            :         -0.689660311 Ha            -18.766611909 eV
  C Energy GGA        :         -0.043435545 Ha             -1.181941310 eV
  Total XC Energy     :         -0.733095856 Ha            -19.948553219 eV
  LDA X and C from self-consistent density 
  X Energy LDA        :         -0.603639185 Ha            -16.425857975 eV
  C Energy LDA        :         -0.096959410 Ha             -2.638399799 eV
  ------------------------------------ 
  End decomposition of the XC Energy 
  ------------------------------------ 

------------------------------------------------------------------------------
  Final output of selected total energy values:

  The following output summarizes some interesting total energy values
  at the end of a run (AFTER all relaxation, molecular dynamics, etc.).

  | Total energy of the DFT / Hartree-Fock s.c.f. calculation      :            -31.356068458 eV
  | Final zero-broadening corrected energy (caution - metals only) :            -31.356068458 eV
  | For reference only, the value of 1 Hartree used in FHI-aims is :             27.211384500 eV

  Before relying on these values, please be sure to understand exactly which
  total energy value is referred to by a given number. Different objects may
  all carry the same name 'total energy'. Definitions:

  Total energy of the DFT / Hartree-Fock s.c.f. calculation:
  | Note that this energy does not include ANY quantities calculated after the
  | s.c.f. cycle, in particular not ANY RPA, MP2, etc. many-body perturbation terms.

  Final zero-broadening corrected energy:
  | For metallic systems only, a broadening of the occupation numbers at the Fermi
  | level can be extrapolated back to zero broadening by an electron-gas inspired
  | formula. For all systems that are not real metals, this value can be
  | meaningless and should be avoided.

------------------------------------------------------------------------------

------------------------------------------------------------
          Leaving FHI-aims.
          Date     :  20220120, Time     :  152412.217

          Computational steps:
          | Number of self-consistency cycles          :           28

          Detailed time accounting                     :  max(cpu_time)    wall_clock(cpu1)
          | Total time                                 :        0.941 s           1.053 s
          | Preparation time                           :        0.079 s           0.080 s
          | Grid partitioning                          :        0.007 s           0.007 s
          | Preloading free-atom quantities on grid    :        0.004 s           0.003 s
          | Free-atom superposition energy             :        0.003 s           0.003 s
          | Total time for integrations                :        0.289 s           0.288 s
          | Total time for solution of K.-S. equations :        0.046 s           0.048 s
          | Total time for density update              :        0.184 s           0.171 s
          | Total time for mixing                      :        0.048 s           0.049 s
          | Total time for Hartree multipole update    :        0.037 s           0.035 s
          | Total time for Hartree multipole sum       :        0.130 s           0.136 s
          | Total time for total energy evaluation     :        0.005 s           0.016 s
          | Total time for scaled ZORA corrections     :        0.000 s           0.000 s
          | Total time for vdW correction              :        0.002 s           0.003 s

          Have a nice day.
------------------------------------------------------------
