  MPI-parallelism will be employed.
------------------------------------------------------------
          Invoking FHI-aims ...
          Version 052014
          Git rev. (modified): 096c982 Merge branch master of fhiaims:/pub/localo[...]
          Compiled on 2016/12/16 at 15:22:01 on host login02.hpc.iitd.ac.in.

          When using FHI-aims, please cite the following reference:

          Volker Blum, Ralf Gehrke, Felix Hanke, Paula Havu,
          Ville Havu, Xinguo Ren, Karsten Reuter, and Matthias Scheffler,
          'Ab Initio Molecular Simulations with Numeric Atom-Centered Orbitals: FHI-aims',
          Computer Physics Communications 180, 2175-2196 (2009)

          For any questions about FHI-aims, please visit the aimsclub website
          with its forums and wiki. Contributions to both the forums and the
          wiki are warmly encouraged - they are for you, and everyone is welcome there.

------------------------------------------------------------

  Date     :  20220120, Time     :  151930.255
  Time zero on CPU 1             :   0.227110000000000E-01  s.
  Internal wall clock time zero  :           411923970.255  s.

  Using        8 parallel tasks.
  Task        0 on host csky021 reporting.
  Task        1 on host csky021 reporting.
  Task        2 on host csky021 reporting.
  Task        3 on host csky021 reporting.
  Task        4 on host csky021 reporting.
  Task        5 on host csky021 reporting.
  Task        6 on host csky021 reporting.
  Task        7 on host csky021 reporting.

  Performing system and environment tests:
  | Environment variable OMP_NUM_THREADS correctly set to 1.
  | Stacksize not measured: no C compiler
  | Checking for scalapack...
  | Testing pdtran()...
  | All pdtran() tests passed.

  Obtaining array dimensions for all initial allocations:
  
  -----------------------------------------------------------------------
  Parsing control.in (first pass over file, find array dimensions only).
  The contents of control.in will be repeated verbatim below
  unless switched off by setting 'verbatim_writeout .false.' .
  in the first line of control.in .
  -----------------------------------------------------------------------
  
    xc               pbe
    spin             collinear
    default_initial_moment hund
    relativistic     atomic_zora scalar 1e-9
    occupation_type  gaussian 0.001
    charge        0
    vdw_correction_hirshfeld
    KS_method        scalapack_fast
    mixer            pulay
    charge_mix_param  0.4
    spin_mix_param    0.6
    sc_accuracy_rho  1E-4
    sc_accuracy_eev  1E-5
    sc_accuracy_etot 1E-5
    sc_iter_limit    100
    empty_states     10
  ################################################################################
  #
  #  FHI-aims code project
  # Volker Blum, Fritz Haber Institute Berlin, 2009
  #
  #  Suggested "tight" defaults for H atom (to be pasted into control.in file)
  #
  ################################################################################
    species        H
  #     global species definitions
      nucleus             1
      mass                1.00794
  #
      l_hartree           6
  #
      cut_pot             4.0  2.0  1.0
      basis_dep_cutoff    1e-4
  #
      radial_base         24 7.0
      radial_multiplier   2
      angular_grids       specified
        division   0.1930   50
        division   0.3175  110
        division   0.4293  194
        division   0.5066  302
        division   0.5626  434
  #      division   0.5922  590
  #      division   0.6227  974
  #      division   0.6868 1202
  #      outer_grid  770
        outer_grid  434
  ################################################################################
  #
  #  Definition of "minimal" basis
  #
  ################################################################################
  #     valence basis states
      valence      1  s   1.
  #     ion occupancy
      ion_occ      1  s   0.5
  ################################################################################
  #
  #  Suggested additional basis functions. For production calculations,
  #  uncomment them one after another (the most important basis functions are
  #  listed first).
  #
  #  Basis constructed for dimers: 0.5 A, 0.7 A, 1.0 A, 1.5 A, 2.5 A
  #
  ################################################################################
  #  "First tier" - improvements: -1014.90 meV to -62.69 meV
       hydro 2 s 2.1
       hydro 2 p 3.5
  #  "Second tier" - improvements: -12.89 meV to -1.83 meV
       hydro 1 s 0.85
       hydro 2 p 3.7
       hydro 2 s 1.2
       hydro 3 d 7
  #  "Third tier" - improvements: -0.25 meV to -0.12 meV
  #     hydro 4 f 11.2
  #     hydro 3 p 4.8
  #     hydro 4 d 9
  #     hydro 3 s 3.2
  ################################################################################
  #
  # For methods that use the localized form of the "resolution of identity" for
  # the two-electron Coulomb operator (RI_method LVL), particularly Hartree-Fock and
  # hybrid density functional calculations, the highest accuracy can be obtained by
  # uncommenting the line beginning with "for_aux"  below, thus adding an extra g radial
  # function to the construction of the product basis set for the expansion.
  # See Ref. New J. Phys. 17, 093020 (2015) for more information, particularly Figs. 1 and 6.
  #
  ################################################################################
  #
  # for_aux hydro 5 g 6.0
  
  -----------------------------------------------------------------------
  Completed first pass over input file control.in .
  -----------------------------------------------------------------------
  
  
  -----------------------------------------------------------------------
  Parsing geometry.in (first pass over file, find array dimensions only).
  The contents of geometry.in will be repeated verbatim below
  unless switched off by setting 'verbatim_writeout .false.' .
  in the first line of geometry.in .
  -----------------------------------------------------------------------
  
  atom 0 0 0 H
  atom 0 0 0.23 H
  
  -----------------------------------------------------------------------
  Completed first pass over input file geometry.in .
  -----------------------------------------------------------------------
  

  Basic array size parameters:
  | Number of species                 :        1
  | Number of atoms                   :        2
  | Max. basis fn. angular momentum   :        2
  | Max. atomic/ionic basis occupied n:        1
  | Max. number of basis fn. types    :        2
  | Max. radial fns per species/type  :        6
  | Max. logarithmic grid size        :     1131
  | Max. radial integration grid size :       49
  | Max. angular integration grid size:      434
  | Max. angular grid division number :        8
  | Radial grid for Hartree potential :     1131
  | Number of spin channels           :        2

------------------------------------------------------------
          Reading file control.in.
------------------------------------------------------------
  XC: Using PBE gradient-corrected functionals.
  Spin treatment: Spin density functional theory - collinear spins.
  Initial spin moment per atom set according to Hund's rules.
  Scalar relativistic treatment of kinetic energy: on-site free-atom approximation to ZORA.
  Occupation type: Gaussian broadening, width =   0.100000E-02 eV.
  Charge =   0.000000E+00: Neutral system requested explicitly.
  Using non-empirical van der Waals correction (Hirshfeld partitioning):
  Kohn-Sham eigenvalues and eigenfunctions calculated by the ELPA eigensolver library.
  Using pulay charge density mixing.
  Charge density mixing - mixing parameter:     0.4000
  Spin density mixing - mixing parameter:     0.6000
  Convergence accuracy of self-consistent charge density: 0.1000E-03
  Convergence accuracy of sum of eigenvalues: 0.1000E-04
  Convergence accuracy of total energy: 0.1000E-04
  Maximum number of s.-c. iterations  :   100
  Number of empty states per atom:       10
 
  Reading configuration options for species H                   .
  | Found nuclear charge :   1.0000
  | Found atomic mass :    1.00794000000000      amu
  | Found l_max for Hartree potential  :   6
  | Found cutoff potl. onset [A], width [A], scale factor :    4.00000    2.00000    1.00000
  | Threshold for basis-dependent cutoff potential is   0.100000E-03
  | Found data for basic radial integration grid :    24 points, outermost radius =    7.000 A
  | Found multiplier for basic radial grid :   2
  | Found angular grid specification: user-specified.
  | Specified grid contains     6 separate shells.
  | Check grid settings after all constraints further below.
  | Found free-atom valence shell :  1 s   1.000
  | No ionic wave fns used. Skipping ion_occ.
  | Found hydrogenic basis function :  2 s   2.100
  | Found hydrogenic basis function :  2 p   3.500
  | Found hydrogenic basis function :  1 s   0.850
  | Found hydrogenic basis function :  2 p   3.700
  | Found hydrogenic basis function :  2 s   1.200
  | Found hydrogenic basis function :  3 d   7.000
  Species H                   : Missing cutoff potential type.
  Defaulting to exp(1/x)/(1-x)^2 type cutoff potential.
  Species H : No 'logarithmic' tag. Using default grid for free atom:
  | Default logarithmic grid data [bohr] : 0.1000E-03 0.1000E+03 0.1012E+01
  Species H : On-site basis accuracy parameter (for Gram-Schmidt orthonormalisation) not specified.
  Using default value basis_acc =  0.1000000E-03.
  Species H                   : Using default innermost maximum threshold i_radial=  2 for radial functions.
  Species H                   : Default cutoff onset for free atom density etc. : 0.40000000E+01 AA.
  Species H                   : Basic radial grid will be enhanced according to radial_multiplier =   2, to contain    49 grid points.
 
  Finished reading input file 'control.in'. Consistency checks are next.
 
  Target number of points in a grid batch is not set. Defaulting to  100
  Method for grid partitioning is not set. Defaulting to parallel hash+maxmin partitioning.
  Batch size limit is not set. Defaulting to    200
  By default, will store active basis functions for each batch.
  If in need of memory, prune_basis_once .false. can be used to disable this option.
  communication_type for Hartree potential was not specified.
  Defaulting to calc_hartree .
  Pulay mixer: Number of relevant iterations not set.
  Defaulting to    8 iterations.
  Pulay mixer: Number of initial linear mixing iterations not set.
  Defaulting to    0 iterations.
  Work space size for distributed Hartree potential not set.
  Defaulting to   0.200000E+03 MB.
  Algorithm-dependent basis array size parameters:
  | n_max_pulay                         :        8
  Calculation of forces was not defined in control.in. No forces will be calculated.
  Geometry relaxation not requested: no relaxation will be performed.
  No accuracy limit for integral partition fn. given. Defaulting to 0.1000E-14.
  No threshold value for u(r) in integrations given. Defaulting to 0.1000E-05.
  No accuracy for occupation numbers given. Defaulting to 0.1000E-07.
  No threshold value for occupation numbers given. Defaulting to 0.0000E+00.
  No accuracy for fermi level given. Defaulting to 0.1000E-19.
  Maximum # of iterations to find E_F not set. Defaulting to  200.
  Will not use alltoall communication since running on < 1024 CPUs.
  Threshold for basis singularities not set.
  Default threshold for basis singularities: 0.1000E-04
  partition_type (choice of integration weights) for integrals was not specified.
  | Using a version of the partition function of Stratmann and coworkers ('stratmann_smoother').
  | At each grid point, the set of atoms used to build the partition table is smoothly restricted to
  | only those atoms whose free-atom density would be non-zero at that grid point.
  Partitioning for Hartree potential was not defined. Using partition_type for integrals.
  | Adjusted default value of keyword multip_moments_threshold to:       0.10000000E-11
  | This value may affect high angular momentum components of the Hartree potential in periodic systems.
  No q(lm)/r^(l+1) cutoff set for long-range Hartree potential.
  | Using default value of  0.100000E-09 .
  | Verify using the multipole_threshold keyword.
  Defaulting to new monopole extrapolation.
  Density update method: automatic selection selected.
------------------------------------------------------------


------------------------------------------------------------
          Reading geometry description geometry.in.
------------------------------------------------------------
  Input structure read successfully.
  The structure contains        2 atoms,  and a total of          2.000 electrons.

  Input geometry:
  | No unit cell requested.
  | Atomic structure:
  |       Atom                x [A]            y [A]            z [A]
  |    1: Species H              0.000000         0.000000         0.000000
  |    2: Species H              0.000000         0.000000         0.230000
  |

  | The smallest distance between any two atoms is         0.23000000 AA.
  |
  | The first atom of this pair is atom number                      1 .
  | The second atom of this pair is atom number                     2 .

  Initial moments and charges:
  |  Atom   Moment         Charge        Species
  |     1  (Hund's rule)   0.000000E+00   H
  |     2  (Hund's rule)   0.000000E+00   H

  Structure-dependent array size parameters: 
  | Number of distinct atom types in initial rho :        1
  | Maximum number of distinct radial functions  :        7
  | Maximum number of basis functions            :       30
  | Number of Kohn-Sham states (occupied + empty):       11
------------------------------------------------------------

------------------------------------------------------------
          Preparing all fixed parts of the calculation.
------------------------------------------------------------
  Determining machine precision:
    2.225073858507201E-308
  Setting up grids for atomic and cluster calculations.

  Creating wave function, potential, and density for free atoms.

  Species: H

  List of occupied orbitals and eigenvalues:
    n    l              occ      energy [Ha]    energy [eV]
    1    0           1.0000        -0.238386        -6.4868

  Spin-polarized or charged system:
  Charge density initialized according to selected moments and charges.

  Creating spin-polarized density from free atoms.

  Species: H
  Charge:   0.000000
  applying Hund's rules ...

  List of occupied orbitals and eigenvalues:
    n    l      energy [Ha]    energy [eV]    occupation
  Spin-up
    1    0        -0.278991        -7.5917     1.00000000
  Spin-down
    1    0         0.090850         2.4721     0.00000000

  Creating fixed part of basis set: Ionic, confined, hydrogenic.
 
  H                    hydrogenic:
 
  List of hydrogenic basis orbitals: 
    n    l      effective z      eigenvalue [eV]  inner max. [A]     outer max. [A]     outer radius [A]   
    2    0         2.100000       -14.9965           0.193243           1.317208           5.373006
    2    1         3.500000       -41.6672           0.602369           0.602369           4.056063
    1    0         0.850000        -9.8292           0.624871           0.624871           5.373006
    2    1         3.700000       -46.5653           0.573622           0.573622           3.910002
    2    0         1.200000        -4.5995           0.334980           2.228188           5.505995
    3    2         7.000000       -74.0753           0.680699           0.680699           3.769201
 

  Adding cutoff potential to free-atom effective potential.
  Creating atomic-like basis functions for current effective potential.

  Species H                   :

  List of atomic basis orbitals and eigenvalues:
    n    l      energy [Ha]    energy [eV]    outer radius [A]
    1    0        -0.238386        -6.4868       5.373006

  Assembling full basis from fixed parts.
  | Species H :   atomic orbital   1 s accepted.
  | Species H :    hydro orbital   2 s accepted.
  | Species H :    hydro orbital   1 s accepted.
  | Species H :    hydro orbital   2 s accepted.
  | Species H :    hydro orbital   2 p accepted.
  | Species H :    hydro orbital   2 p accepted.
  | Species H :    hydro orbital   3 d accepted.
 
  Basis size parameters after reduction:
  | Total number of radial functions:        7
  | Total number of basis functions :       30
 
  Testing on-site integration grid accuracy.
  |  Species  Function  <phi|h_atom|phi> (log., in eV)  <phi|h_atom|phi> (rad., in eV)
           1        1                 -6.4870767962                 -6.4871688290
           1        2                 13.5032046589                 13.5028982997
           1        3                 32.8195184817                 32.8119941656
           1        4                 33.8513856511                 33.7670005767 ***
           1        5                 28.8544614965                 28.8544615203
           1        6                 59.6326952547                 59.6327656460
           1        7                 60.2719308513                 60.2719305949
 * Note: Onsite integrals marked "***" above are less accurate than
 * onsite_accuracy_threshold =    0.03000 eV. Usually, this is harmless.
 * When in doubt, tighten the "radial" and/or "radial_multiplier" flags to check.

  Preparing densities etc. for the partition functions (integrals / Hartree potential).

  Preparations completed.
  max(cpu_time)          :      0.077 s.
  Wall clock time (cpu1) :      0.079 s.
------------------------------------------------------------

------------------------------------------------------------
          Begin self-consistency loop: Initialization.

          Date     :  20220120, Time     :  151930.408
------------------------------------------------------------

  Initializing index lists of integration centers etc. from given atomic structure:
  | Number of centers in hartree potential         :         2
  | Number of centers in hartree multipole         :         2
  | Number of centers in electron density summation:         2
  | Number of centers in basis integrals           :         2
  | Number of centers in integrals                 :         2
  Using modified Scalapack Eigenvalue solver (ELPA)
  * Using 8 tasks for Scalapack Eigenvalue solver.
  Detailed listing of tasks and assigned k-points:
  (for non-periodic systems, the "k-point" denotes an internal label only)
   Task     0 k-point     1 on csky021
   Task     1 k-point     1 on csky021
   Task     2 k-point     1 on csky021
   Task     3 k-point     1 on csky021
   Task     4 k-point     1 on csky021
   Task     5 k-point     1 on csky021
   Task     6 k-point     1 on csky021
   Task     7 k-point     1 on csky021
  Tasks:     8 split into      4 X      2 BLACS grid
  Calculating blocksize based on n_basis =           30 max_nprow =            4 max_npcol =            2
  Scalapack blocksize set to:            4
  Required Scalapack workspace - INTEGER:            1 REAL:             1
  Partitioning the integration grid into batches with parallel hashing+maxmin method.
  | Number of batches:      442
  | Maximal batch size:     197
  | Minimal batch size:      49
  | Average batch size:      65.385
  | Standard deviation of batch sizes:      18.637

  Integration load balanced across     8 MPI tasks.
  Work distribution over tasks is as follows:
  Task     0 has       3585 integration points.
  Task     1 has       3577 integration points.
  Task     2 has       3676 integration points.
  Task     3 has       3662 integration points.
  Task     4 has       3595 integration points.
  Task     5 has       3591 integration points.
  Task     6 has       3588 integration points.
  Task     7 has       3626 integration points.
  Initializing partition tables, free-atom densities, potentials, etc. across the integration grid (initialize_grid_storage).
  | initialize_grid_storage: Actual outermost partition radius vs. multipole_radius_free
  | (-- VB: in principle, multipole_radius_free should be larger, hence this output)
  | Species        1: outer_partition_radius =              6.000000000000000 AA, multipole_radius_free =              6.071692442739658 AA.
  | Original list of interatomic distances with           2 x          2 entries is created.
  | Net number of integration points:    28900
  | of which are non-zero points    :    25282
  Obtaining max. number of non-zero basis functions in each batch (get_n_compute_maxes).
  | Maximal number of non-zero basis functions:       30 in task     0
  | Maximal number of non-zero basis functions:       30 in task     1
  | Maximal number of non-zero basis functions:       30 in task     2
  | Maximal number of non-zero basis functions:       30 in task     3
  | Maximal number of non-zero basis functions:       30 in task     4
  | Maximal number of non-zero basis functions:       30 in task     5
  | Maximal number of non-zero basis functions:       30 in task     6
  | Maximal number of non-zero basis functions:       30 in task     7
  Selecting the method for density update.
  Loop over occupied states selected for charge density update.
  Integrating Hamiltonian matrix: batch-based integration.
  Time summed over all CPUs for integration: real work        0.077 s, elapsed        0.083 s
  Integrating overlap matrix.
  Time summed over all CPUs for integration: real work        0.019 s, elapsed        0.021 s
  Deallocating overlap matrix.

  Updating Kohn-Sham eigenvalues, eigenvectors, occupation numbers, and Fermi level.
  Solving generalized eigenproblem
  Solving real symmetric generalised eigenvalue problem by standard ScaLAPACK.
  Transforming overlap matrix with ScaLAPACK and checking for singularities.
  : Overlap matrix is nonsingular, using Cholesky decomposition
  | Lowest eigenvalue:  0.184307E-04
  Factoring overlap matrix with Cholesky decomposition
  Using Cholesky factor for transformation
  Using 1-stage real ELPA solver
  Solving real symmetric generalised eigenvalue problem by standard ScaLAPACK.
  Using Cholesky factor for transformation
  Using 1-stage real ELPA solver
  Determining occupation numbers for Kohn-Sham eigenstates.
  | Chemical potential (Fermi level) in eV                 : -.55562141E-01
  | Error in electron count due to remaining E_F inaccuracy: 0.00000000E+00
  | Maximum occupation number of highest empty state:  0.00E+00

  Writing Kohn-Sham eigenvalues.

  Spin-up eigenvalues:

  State    Occupation    Eigenvalue [Ha]    Eigenvalue [eV]
      1       1.00000          -0.981712          -26.71374
      2       1.00000          -0.016748           -0.45573
      3       0.00000           0.006824            0.18569
      4       0.00000           0.165742            4.51008
      5       0.00000           0.199799            5.43679
      6       0.00000           0.199799            5.43679
      7       0.00000           0.234744            6.38770
      8       0.00000           0.607993           16.54434
      9       0.00000           0.607993           16.54434
     10       0.00000           0.668005           18.17734
     11       0.00000           0.699857           19.04407

  Spin-down eigenvalues:

  State    Occupation    Eigenvalue [Ha]    Eigenvalue [eV]
      1       0.00000           0.099044            2.69512
      2       0.00000           0.114048            3.10340
      3       0.00000           0.521745           14.19740
      4       0.00000           0.538724           14.65944
      5       0.00000           1.065286           28.98791
      6       0.00000           1.223360           33.28933
      7       0.00000           1.223360           33.28933
      8       0.00000           1.235403           33.61703
      9       0.00000           1.235403           33.61703
     10       0.00000           1.455482           39.60568
     11       0.00000           1.893084           51.51344

  Current spin moment of the entire structure :
  | N = N_up - N_down :    2.00
  | S                 :    1.00
  | J                 :    3.00

  Highest occupied state (VBM) at     -0.45572946 eV
  | Occupation number:      1.00000000
  | Spin channel:        1

  Lowest unoccupied state (CBM) at     0.18569397 eV
  | Occupation number:      0.00000000
  | Spin channel:        1

  Overall HOMO-LUMO gap:      0.64142343 eV.
  Calculating total energy contributions from superposition of free atom densities.

  Total energy components:
  | Sum of eigenvalues            :          -0.99845978 Ha         -27.16947297 eV
  | XC energy correction          :          -0.73974958 Ha         -20.12961025 eV
  | XC potential correction       :           0.95514045 Ha          25.99069400 eV
  | Free-atom electrostatic energy:           1.15340670 Ha          31.38579318 eV
  | Hartree energy correction     :           0.00000000 Ha           0.00000000 eV
  | van der Waals energy corr.    :           0.00000000 Ha           0.00000000 eV
  | Entropy correction            :           0.00000000 Ha           0.00000000 eV
  | ---------------------------
  | Total energy                  :           0.37033779 Ha          10.07740396 eV
  | Total energy, T -> 0          :           0.37033779 Ha          10.07740396 eV  <-- do not rely on this value for anything but (periodic) metals
  | Electronic free energy        :           0.37033779 Ha          10.07740396 eV

  Derived energy quantities:
  | Kinetic energy                :           1.28998750 Ha          35.10234590 eV
  | Electrostatic energy          :          -0.17990013 Ha          -4.89533170 eV
  | Energy correction for multipole
  | error in Hartree potential    :           0.00000000 Ha           0.00000000 eV
  | Sum of eigenvalues per atom                           :         -13.58473649 eV
  | Total energy (T->0) per atom                          :           5.03870198 eV  <-- do not rely on this value for anything but (periodic) metals
  | Electronic free energy per atom                       :           5.03870198 eV
  Initialize hartree_potential_storage
  Max. number of atoms included in rho_multipole:            2

  End scf initialization - timings             :  max(cpu_time)    wall_clock(cpu1)
  | Time for scf. initialization               :        0.040 s           0.041 s
  | Boundary condition initialization          :        0.000 s           0.000 s
  | Integration                                :        0.013 s           0.013 s
  | Solution of K.-S. eqns.                    :        0.007 s           0.008 s
  | Grid partitioning                          :        0.007 s           0.007 s
  | Preloading free-atom quantities on grid    :        0.005 s           0.004 s
  | Free-atom superposition energy             :        0.002 s           0.002 s
  | Total energy evaluation                    :        0.000 s           0.000 s
------------------------------------------------------------

------------------------------------------------------------
          Begin self-consistency iteration #    1

  Date     :  20220120, Time     :  151930.449
------------------------------------------------------------
  Evaluating new KS density.
  Integration grid: deviation in total charge (<rho> - N_e) =  -1.535666E-06
  | <rho_up-rho_dn> = N_up-N_dn =      2.0000; <|rho_up-rho_dn|> =      2.6212
  Pulay mixing of updated and previous charge densities.

  Evaluating partitioned Hartree potential by multipole expansion.
  | Analytical far-field extrapolation by fixed multipoles:
  | Hartree multipole sum: apparent total charge =  -0.252262E-04
  Summing up the Hartree potential.
  Time summed over all CPUs for potential: real work        0.033 s, elapsed        0.034 s
  | RMS charge density error from multipole expansion :   0.145241E-02

  Integrating Hamiltonian matrix: batch-based integration.
  Time summed over all CPUs for integration: real work        0.065 s, elapsed        0.067 s

  Updating Kohn-Sham eigenvalues, eigenvectors, occupation numbers, and Fermi level.
  Solving generalized eigenproblem
  Solving real symmetric generalised eigenvalue problem by standard ScaLAPACK.
  Using Cholesky factor for transformation
  Using 1-stage real ELPA solver
  Solving real symmetric generalised eigenvalue problem by standard ScaLAPACK.
  Using Cholesky factor for transformation
  Using 1-stage real ELPA solver
  Determining occupation numbers for Kohn-Sham eigenstates.
  | Chemical potential (Fermi level) in eV                 : -.10235031E+02
  | Error in electron count due to remaining E_F inaccuracy: 0.00000000E+00
  | Maximum occupation number of highest empty state:  0.00E+00

  Writing Kohn-Sham eigenvalues.

  Spin-up eigenvalues:

  State    Occupation    Eigenvalue [Ha]    Eigenvalue [eV]
      1       1.00000          -0.683970          -18.61177
      2       0.00000           0.054085            1.47171
      3       0.00000           0.063150            1.71841
      4       0.00000           0.187674            5.10688
      5       0.00000           0.206467            5.61824
      6       0.00000           0.206467            5.61824
      7       0.00000           0.307933            8.37929
      8       0.00000           0.626867           17.05793
      9       0.00000           0.626867           17.05793
     10       0.00000           0.715840           19.47900
     11       0.00000           0.730579           19.88007

  Spin-down eigenvalues:

  State    Occupation    Eigenvalue [Ha]    Eigenvalue [eV]
      1       1.00000          -0.519818          -14.14496
      2       0.00000           0.070251            1.91163
      3       0.00000           0.075221            2.04686
      4       0.00000           0.232191            6.31825
      5       0.00000           0.307299            8.36203
      6       0.00000           0.307299            8.36203
      7       0.00000           0.344047            9.36199
      8       0.00000           0.685044           18.64100
      9       0.00000           0.685044           18.64100
     10       0.00000           0.798884           21.73874
     11       0.00000           0.800903           21.79368

  Current spin moment of the entire structure :
  | N = N_up - N_down :    0.00
  | S                 :    0.00
  | J                 :    1.00

  Highest occupied state (VBM) at    -14.14495754 eV
  | Occupation number:      1.00000000
  | Spin channel:        2

  Lowest unoccupied state (CBM) at     1.47171425 eV
  | Occupation number:      0.00000000
  | Spin channel:        1

  Overall HOMO-LUMO gap:     15.61667179 eV.

  Total energy components:
  | Sum of eigenvalues            :          -1.20378764 Ha         -32.75672837 eV
  | XC energy correction          :          -0.38647472 Ha         -10.51651207 eV
  | XC potential correction       :           0.49228174 Ha          13.39566767 eV
  | Free-atom electrostatic energy:           1.15340670 Ha          31.38579318 eV
  | Hartree energy correction     :           0.07136844 Ha           1.94203404 eV
  | van der Waals energy corr.    :           0.00000000 Ha           0.00000000 eV
  | Entropy correction            :           0.00000000 Ha           0.00000000 eV
  | ---------------------------
  | Total energy                  :           0.12679452 Ha           3.45025445 eV
  | Total energy, T -> 0          :           0.12679452 Ha           3.45025445 eV  <-- do not rely on this value for anything but (periodic) metals
  | Electronic free energy        :           0.12679452 Ha           3.45025445 eV

  Derived energy quantities:
  | Kinetic energy                :           0.92832292 Ha          25.26095190 eV
  | Electrostatic energy          :          -0.41505368 Ha         -11.29418538 eV
  | Energy correction for multipole
  | error in Hartree potential    :           0.00014318 Ha           0.00389617 eV
  | Sum of eigenvalues per atom                           :         -16.37836418 eV
  | Total energy (T->0) per atom                          :           1.72512722 eV  <-- do not rely on this value for anything but (periodic) metals
  | Electronic free energy per atom                       :           1.72512722 eV

  Self-consistency convergence accuracy:
  | Change of charge/spin density : 0.1923E+00 0.1923E+00
  | Change of sum of eigenvalues  : -.5587E+01 eV
  | Change of total energy        : -.6627E+01 eV

  End self-consistency iteration #     1       :  max(cpu_time)    wall_clock(cpu1)
  | Time for this iteration                    :        0.026 s           0.025 s
  | Charge density update                      :        0.006 s           0.006 s
  | Density mixing                             :        0.001 s           0.001 s
  | Hartree multipole update                   :        0.001 s           0.001 s
  | Hartree multipole summation                :        0.005 s           0.005 s
  | Integration                                :        0.009 s           0.009 s
  | Solution of K.-S. eqns.                    :        0.001 s           0.002 s
  | Total energy evaluation                    :        0.000 s           0.000 s
------------------------------------------------------------

------------------------------------------------------------
          Begin self-consistency iteration #    2

  Date     :  20220120, Time     :  151930.478
------------------------------------------------------------
  Evaluating new KS density.
  Integration grid: deviation in total charge (<rho> - N_e) =  -9.213995E-07
  | <rho_up-rho_dn> = N_up-N_dn =     -2.0000; <|rho_up-rho_dn|> =      2.0000
  Pulay mixing of updated and previous charge densities.

  Evaluating partitioned Hartree potential by multipole expansion.
  | Analytical far-field extrapolation by fixed multipoles:
  | Hartree multipole sum: apparent total charge =  -0.219486E-04
  Summing up the Hartree potential.
  Time summed over all CPUs for potential: real work        0.032 s, elapsed        0.033 s
  | RMS charge density error from multipole expansion :   0.182545E-02

  Integrating Hamiltonian matrix: batch-based integration.
  Time summed over all CPUs for integration: real work        0.064 s, elapsed        0.067 s

  Updating Kohn-Sham eigenvalues, eigenvectors, occupation numbers, and Fermi level.
  Solving generalized eigenproblem
  Solving real symmetric generalised eigenvalue problem by standard ScaLAPACK.
  Using Cholesky factor for transformation
  Using 1-stage real ELPA solver
  Solving real symmetric generalised eigenvalue problem by standard ScaLAPACK.
  Using Cholesky factor for transformation
  Using 1-stage real ELPA solver
  Determining occupation numbers for Kohn-Sham eigenstates.
  | Chemical potential (Fermi level) in eV                 : -.16104927E+02
  | Error in electron count due to remaining E_F inaccuracy: 0.00000000E+00
  | Maximum occupation number of highest empty state:  0.00E+00

  Current spin moment of the entire structure :
  | N = N_up - N_down :    0.00
  | S                 :    0.00
  | J                 :    1.00

  Highest occupied state (VBM) at    -19.44209144 eV
  | Occupation number:      1.00000000
  | Spin channel:        2

  Lowest unoccupied state (CBM) at     1.04930679 eV
  | Occupation number:      0.00000000
  | Spin channel:        1

  Overall HOMO-LUMO gap:     20.49139824 eV.

  Total energy components:
  | Sum of eigenvalues            :          -1.66693628 Ha         -45.35964395 eV
  | XC energy correction          :          -0.64604762 Ha         -17.57985015 eV
  | XC potential correction       :           0.83034724 Ha          22.59489795 eV
  | Free-atom electrostatic energy:           1.15340670 Ha          31.38579318 eV
  | Hartree energy correction     :           0.01490359 Ha           0.40554723 eV
  | van der Waals energy corr.    :           0.00000000 Ha           0.00000000 eV
  | Entropy correction            :           0.00000000 Ha           0.00000000 eV
  | ---------------------------
  | Total energy                  :          -0.31432637 Ha          -8.55325575 eV
  | Total energy, T -> 0          :          -0.31432637 Ha          -8.55325575 eV  <-- do not rely on this value for anything but (periodic) metals
  | Electronic free energy        :          -0.31432637 Ha          -8.55325575 eV

  Derived energy quantities:
  | Kinetic energy                :           0.83987456 Ha          22.85414970 eV
  | Electrostatic energy          :          -0.50815332 Ha         -13.82755530 eV
  | Energy correction for multipole
  | error in Hartree potential    :           0.00018244 Ha           0.00496447 eV
  | Sum of eigenvalues per atom                           :         -22.67982197 eV
  | Total energy (T->0) per atom                          :          -4.27662787 eV  <-- do not rely on this value for anything but (periodic) metals
  | Electronic free energy per atom                       :          -4.27662787 eV

  Self-consistency convergence accuracy:
  | Change of charge/spin density : 0.2243E+00 0.4069E+00
  | Change of sum of eigenvalues  : -.1260E+02 eV
  | Change of total energy        : -.1200E+02 eV

  End self-consistency iteration #     2       :  max(cpu_time)    wall_clock(cpu1)
  | Time for this iteration                    :        0.024 s           0.024 s
  | Charge density update                      :        0.006 s           0.006 s
  | Density mixing                             :        0.001 s           0.001 s
  | Hartree multipole update                   :        0.001 s           0.001 s
  | Hartree multipole summation                :        0.004 s           0.005 s
  | Integration                                :        0.009 s           0.008 s
  | Solution of K.-S. eqns.                    :        0.001 s           0.002 s
  | Total energy evaluation                    :        0.000 s           0.001 s
------------------------------------------------------------

------------------------------------------------------------
          Begin self-consistency iteration #    3

  Date     :  20220120, Time     :  151930.507
------------------------------------------------------------
  Evaluating new KS density.
  Integration grid: deviation in total charge (<rho> - N_e) =  -8.208632E-07
  | <rho_up-rho_dn> = N_up-N_dn =     -1.6727; <|rho_up-rho_dn|> =      1.6727
  Pulay mixing of updated and previous charge densities.

  Evaluating partitioned Hartree potential by multipole expansion.
  | Analytical far-field extrapolation by fixed multipoles:
  | Hartree multipole sum: apparent total charge =  -0.256409E-04
  Summing up the Hartree potential.
  Time summed over all CPUs for potential: real work        0.032 s, elapsed        0.033 s
  | RMS charge density error from multipole expansion :   0.504098E-03

  Integrating Hamiltonian matrix: batch-based integration.
  Time summed over all CPUs for integration: real work        0.062 s, elapsed        0.065 s

  Updating Kohn-Sham eigenvalues, eigenvectors, occupation numbers, and Fermi level.
  Solving generalized eigenproblem
  Solving real symmetric generalised eigenvalue problem by standard ScaLAPACK.
  Using Cholesky factor for transformation
  Using 1-stage real ELPA solver
  Solving real symmetric generalised eigenvalue problem by standard ScaLAPACK.
  Using Cholesky factor for transformation
  Using 1-stage real ELPA solver
  Determining occupation numbers for Kohn-Sham eigenstates.
  | Chemical potential (Fermi level) in eV                 : -.10812254E+02
  | Error in electron count due to remaining E_F inaccuracy: 0.00000000E+00
  | Maximum occupation number of highest empty state:  0.00E+00

  Current spin moment of the entire structure :
  | N = N_up - N_down :    0.00
  | S                 :    0.00
  | J                 :    1.00

  Highest occupied state (VBM) at    -15.41635367 eV
  | Occupation number:      1.00000000
  | Spin channel:        2

  Lowest unoccupied state (CBM) at     1.15174735 eV
  | Occupation number:      0.00000000
  | Spin channel:        1

  Overall HOMO-LUMO gap:     16.56810102 eV.

  Total energy components:
  | Sum of eigenvalues            :          -1.27032802 Ha         -34.56738413 eV
  | XC energy correction          :          -0.38478266 Ha         -10.47046904 eV
  | XC potential correction       :           0.49102788 Ha          13.36154833 eV
  | Free-atom electrostatic energy:           1.15340670 Ha          31.38579318 eV
  | Hartree energy correction     :           0.11895400 Ha           3.23690307 eV
  | van der Waals energy corr.    :           0.00000000 Ha           0.00000000 eV
  | Entropy correction            :           0.00000000 Ha           0.00000000 eV
  | ---------------------------
  | Total energy                  :           0.10827789 Ha           2.94639141 eV
  | Total energy, T -> 0          :           0.10827789 Ha           2.94639141 eV  <-- do not rely on this value for anything but (periodic) metals
  | Electronic free energy        :           0.10827789 Ha           2.94639141 eV

  Derived energy quantities:
  | Kinetic energy                :           0.70010704 Ha          19.05088177 eV
  | Electrostatic energy          :          -0.20704648 Ha          -5.63402133 eV
  | Energy correction for multipole
  | error in Hartree potential    :           0.00004111 Ha           0.00111868 eV
  | Sum of eigenvalues per atom                           :         -17.28369207 eV
  | Total energy (T->0) per atom                          :           1.47319570 eV  <-- do not rely on this value for anything but (periodic) metals
  | Electronic free energy per atom                       :           1.47319570 eV

  Self-consistency convergence accuracy:
  | Change of charge/spin density : 0.4035E+00 0.3114E+00
  | Change of sum of eigenvalues  : 0.1079E+02 eV
  | Change of total energy        : 0.1150E+02 eV

  End self-consistency iteration #     3       :  max(cpu_time)    wall_clock(cpu1)
  | Time for this iteration                    :        0.027 s           0.023 s
  | Charge density update                      :        0.009 s           0.005 s
  | Density mixing                             :        0.001 s           0.001 s
  | Hartree multipole update                   :        0.001 s           0.001 s
  | Hartree multipole summation                :        0.004 s           0.005 s
  | Integration                                :        0.008 s           0.008 s
  | Solution of K.-S. eqns.                    :        0.002 s           0.002 s
  | Total energy evaluation                    :        0.000 s           0.001 s
------------------------------------------------------------

------------------------------------------------------------
          Begin self-consistency iteration #    4

  Date     :  20220120, Time     :  151930.532
------------------------------------------------------------
  Evaluating new KS density.
  Integration grid: deviation in total charge (<rho> - N_e) =  -9.073008E-07
  | <rho_up-rho_dn> = N_up-N_dn =     -1.9049; <|rho_up-rho_dn|> =      1.9049
  Pulay mixing of updated and previous charge densities.

  Evaluating partitioned Hartree potential by multipole expansion.
  | Analytical far-field extrapolation by fixed multipoles:
  | Hartree multipole sum: apparent total charge =   0.218273E-04
  Summing up the Hartree potential.
  Time summed over all CPUs for potential: real work        0.035 s, elapsed        0.039 s
  | RMS charge density error from multipole expansion :   0.357023E-01

  Integrating Hamiltonian matrix: batch-based integration.
  Time summed over all CPUs for integration: real work        0.068 s, elapsed        0.073 s

  Updating Kohn-Sham eigenvalues, eigenvectors, occupation numbers, and Fermi level.
  Solving generalized eigenproblem
  Solving real symmetric generalised eigenvalue problem by standard ScaLAPACK.
  Using Cholesky factor for transformation
  Using 1-stage real ELPA solver
  Solving real symmetric generalised eigenvalue problem by standard ScaLAPACK.
  Using Cholesky factor for transformation
  Using 1-stage real ELPA solver
  Determining occupation numbers for Kohn-Sham eigenstates.
  | Chemical potential (Fermi level) in eV                 : 0.26789938E+01
  | Error in electron count due to remaining E_F inaccuracy: 0.00000000E+00
  | Maximum occupation number of highest empty state:  0.00E+00

  Current spin moment of the entire structure :
  | N = N_up - N_down :    0.00
  | S                 :    0.00
  | J                 :    1.00

  Highest occupied state (VBM) at      1.67220166 eV
  | Occupation number:      1.00000000
  | Spin channel:        2
 * WARNING: The VBM is higher than the internal energy zero!

  Lowest unoccupied state (CBM) at     2.75313320 eV
  | Occupation number:      0.00000000
  | Spin channel:        1

  Overall HOMO-LUMO gap:      1.08093153 eV.

  Total energy components:
  | Sum of eigenvalues            :           0.12166694 Ha           3.31072600 eV
  | XC energy correction          :          -3.11745464 Ha         -84.83025691 eV
  | XC potential correction       :           4.03415941 Ha         109.77506290 eV
  | Free-atom electrostatic energy:           1.15340670 Ha          31.38579318 eV
  | Hartree energy correction     :          -5.73259228 Ha        -155.99177270 eV
  | van der Waals energy corr.    :           0.00000000 Ha           0.00000000 eV
  | Entropy correction            :           0.00000000 Ha           0.00000000 eV
  | ---------------------------
  | Total energy                  :          -3.54081387 Ha         -96.35044754 eV
  | Total energy, T -> 0          :          -3.54081387 Ha         -96.35044754 eV  <-- do not rely on this value for anything but (periodic) metals
  | Electronic free energy        :          -3.54081387 Ha         -96.35044754 eV

  Derived energy quantities:
  | Kinetic energy                :           3.50853103 Ha          95.47198689 eV
  | Electrostatic energy          :          -3.93189025 Ha        -106.99217752 eV
  | Energy correction for multipole
  | error in Hartree potential    :           0.00189797 Ha           0.05164640 eV
  | Sum of eigenvalues per atom                           :           1.65536300 eV
  | Total energy (T->0) per atom                          :         -48.17522377 eV  <-- do not rely on this value for anything but (periodic) metals
  | Electronic free energy per atom                       :         -48.17522377 eV

  Self-consistency convergence accuracy:
  | Change of charge/spin density : 0.2927E+00 0.3781E+00
  | Change of sum of eigenvalues  : 0.3788E+02 eV
  | Change of total energy        : -.9930E+02 eV

  End self-consistency iteration #     4       :  max(cpu_time)    wall_clock(cpu1)
  | Time for this iteration                    :        0.027 s           0.026 s
  | Charge density update                      :        0.006 s           0.005 s
  | Density mixing                             :        0.001 s           0.001 s
  | Hartree multipole update                   :        0.001 s           0.001 s
  | Hartree multipole summation                :        0.005 s           0.005 s
  | Integration                                :        0.009 s           0.009 s
  | Solution of K.-S. eqns.                    :        0.002 s           0.002 s
  | Total energy evaluation                    :        0.000 s           0.001 s
------------------------------------------------------------

------------------------------------------------------------
          Begin self-consistency iteration #    5

  Date     :  20220120, Time     :  151930.560
------------------------------------------------------------
  Evaluating new KS density.
  Integration grid: deviation in total charge (<rho> - N_e) =  -2.899941E-07
  | <rho_up-rho_dn> = N_up-N_dn =     -0.9856; <|rho_up-rho_dn|> =      1.4250
  Pulay mixing of updated and previous charge densities.

  Evaluating partitioned Hartree potential by multipole expansion.
  | Analytical far-field extrapolation by fixed multipoles:
  | Hartree multipole sum: apparent total charge =   0.138474E-04
  Summing up the Hartree potential.
  Time summed over all CPUs for potential: real work        0.034 s, elapsed        0.038 s
  | RMS charge density error from multipole expansion :   0.325722E-01

  Integrating Hamiltonian matrix: batch-based integration.
  Time summed over all CPUs for integration: real work        0.061 s, elapsed        0.067 s

  Updating Kohn-Sham eigenvalues, eigenvectors, occupation numbers, and Fermi level.
  Solving generalized eigenproblem
  Solving real symmetric generalised eigenvalue problem by standard ScaLAPACK.
  Using Cholesky factor for transformation
  Using 1-stage real ELPA solver
  Solving real symmetric generalised eigenvalue problem by standard ScaLAPACK.
  Using Cholesky factor for transformation
  Using 1-stage real ELPA solver
  Determining occupation numbers for Kohn-Sham eigenstates.
  | Chemical potential (Fermi level) in eV                 : 0.24311060E+01
  | Error in electron count due to remaining E_F inaccuracy: 0.00000000E+00
  | Maximum occupation number of highest empty state:  0.00E+00

  Current spin moment of the entire structure :
  | N = N_up - N_down :    0.00
  | S                 :    0.00
  | J                 :    1.00

  Highest occupied state (VBM) at      1.48608714 eV
  | Occupation number:      1.00000000
  | Spin channel:        2
 * WARNING: The VBM is higher than the internal energy zero!

  Lowest unoccupied state (CBM) at     2.58628976 eV
  | Occupation number:      0.00000000
  | Spin channel:        1

  Overall HOMO-LUMO gap:      1.10020262 eV.

  Total energy components:
  | Sum of eigenvalues            :           0.10675537 Ha           2.90496136 eV
  | XC energy correction          :          -2.81438623 Ha         -76.58334579 eV
  | XC potential correction       :           3.63900161 Ha          99.02227188 eV
  | Free-atom electrostatic energy:           1.15340670 Ha          31.38579318 eV
  | Hartree energy correction     :          -4.88299268 Ha        -132.87299141 eV
  | van der Waals energy corr.    :           0.00000000 Ha           0.00000000 eV
  | Entropy correction            :           0.00000000 Ha           0.00000000 eV
  | ---------------------------
  | Total energy                  :          -2.79821524 Ha         -76.14331078 eV
  | Total energy, T -> 0          :          -2.79821524 Ha         -76.14331078 eV  <-- do not rely on this value for anything but (periodic) metals
  | Electronic free energy        :          -2.79821524 Ha         -76.14331078 eV

  Derived energy quantities:
  | Kinetic energy                :           3.93035772 Ha         106.95047511 eV
  | Electrostatic energy          :          -3.91418673 Ha        -106.51044010 eV
  | Energy correction for multipole
  | error in Hartree potential    :           0.00187992 Ha           0.05115535 eV
  | Sum of eigenvalues per atom                           :           1.45248068 eV
  | Total energy (T->0) per atom                          :         -38.07165539 eV  <-- do not rely on this value for anything but (periodic) metals
  | Electronic free energy per atom                       :         -38.07165539 eV

  Self-consistency convergence accuracy:
  | Change of charge/spin density : 0.2446E+01 0.7269E+00
  | Change of sum of eigenvalues  : -.4058E+00 eV
  | Change of total energy        : 0.2021E+02 eV

  End self-consistency iteration #     5       :  max(cpu_time)    wall_clock(cpu1)
  | Time for this iteration                    :        0.027 s           0.027 s
  | Charge density update                      :        0.007 s           0.007 s
  | Density mixing                             :        0.001 s           0.001 s
  | Hartree multipole update                   :        0.001 s           0.002 s
  | Hartree multipole summation                :        0.005 s           0.005 s
  | Integration                                :        0.009 s           0.009 s
  | Solution of K.-S. eqns.                    :        0.002 s           0.002 s
  | Total energy evaluation                    :        0.000 s           0.001 s
------------------------------------------------------------

------------------------------------------------------------
          Begin self-consistency iteration #    6

  Date     :  20220120, Time     :  151930.588
------------------------------------------------------------
  Evaluating new KS density.
  Integration grid: deviation in total charge (<rho> - N_e) =  -2.335029E-07
  | <rho_up-rho_dn> = N_up-N_dn =     -0.7434; <|rho_up-rho_dn|> =      1.2204
  Pulay mixing of updated and previous charge densities.

  Evaluating partitioned Hartree potential by multipole expansion.
  | Analytical far-field extrapolation by fixed multipoles:
  | Hartree multipole sum: apparent total charge =  -0.122744E-04
  Summing up the Hartree potential.
  Time summed over all CPUs for potential: real work        0.033 s, elapsed        0.038 s
  | RMS charge density error from multipole expansion :   0.459951E-02

  Integrating Hamiltonian matrix: batch-based integration.
  Time summed over all CPUs for integration: real work        0.071 s, elapsed        0.076 s

  Updating Kohn-Sham eigenvalues, eigenvectors, occupation numbers, and Fermi level.
  Solving generalized eigenproblem
  Solving real symmetric generalised eigenvalue problem by standard ScaLAPACK.
  Using Cholesky factor for transformation
  Using 1-stage real ELPA solver
  Solving real symmetric generalised eigenvalue problem by standard ScaLAPACK.
  Using Cholesky factor for transformation
  Using 1-stage real ELPA solver
  Determining occupation numbers for Kohn-Sham eigenstates.
  | Chemical potential (Fermi level) in eV                 : -.18370921E+02
  | Error in electron count due to remaining E_F inaccuracy: 0.00000000E+00
  | Maximum occupation number of highest empty state:  0.00E+00

  Current spin moment of the entire structure :
  | N = N_up - N_down :    0.00
  | S                 :    0.00
  | J                 :    1.00

  Highest occupied state (VBM) at    -20.81044679 eV
  | Occupation number:      1.00000000
  | Spin channel:        1

  Lowest unoccupied state (CBM) at    -0.81858398 eV
  | Occupation number:      0.00000000
  | Spin channel:        2

  Overall HOMO-LUMO gap:     19.99186281 eV.

  Total energy components:
  | Sum of eigenvalues            :          -1.54848790 Ha         -42.13649968 eV
  | XC energy correction          :          -0.71720041 Ha         -19.51601623 eV
  | XC potential correction       :           0.91615406 Ha          24.92982044 eV
  | Free-atom electrostatic energy:           1.15340670 Ha          31.38579318 eV
  | Hartree energy correction     :          -0.13328465 Ha          -3.62685984 eV
  | van der Waals energy corr.    :           0.00000000 Ha           0.00000000 eV
  | Entropy correction            :           0.00000000 Ha           0.00000000 eV
  | ---------------------------
  | Total energy                  :          -0.32941220 Ha          -8.96376212 eV
  | Total energy, T -> 0          :          -0.32941220 Ha          -8.96376212 eV  <-- do not rely on this value for anything but (periodic) metals
  | Electronic free energy        :          -0.32941220 Ha          -8.96376212 eV

  Derived energy quantities:
  | Kinetic energy                :           1.40165007 Ha          38.14083900 eV
  | Electrostatic energy          :          -1.01386186 Ha         -27.58858489 eV
  | Energy correction for multipole
  | error in Hartree potential    :           0.00044889 Ha           0.01221494 eV
  | Sum of eigenvalues per atom                           :         -21.06824984 eV
  | Total energy (T->0) per atom                          :          -4.48188106 eV  <-- do not rely on this value for anything but (periodic) metals
  | Electronic free energy per atom                       :          -4.48188106 eV

  Self-consistency convergence accuracy:
  | Change of charge/spin density : 0.2246E+01 0.6199E+00
  | Change of sum of eigenvalues  : -.4504E+02 eV
  | Change of total energy        : 0.6718E+02 eV

  End self-consistency iteration #     6       :  max(cpu_time)    wall_clock(cpu1)
  | Time for this iteration                    :        0.028 s           0.028 s
  | Charge density update                      :        0.007 s           0.007 s
  | Density mixing                             :        0.002 s           0.002 s
  | Hartree multipole update                   :        0.001 s           0.001 s
  | Hartree multipole summation                :        0.005 s           0.006 s
  | Integration                                :        0.010 s           0.009 s
  | Solution of K.-S. eqns.                    :        0.001 s           0.002 s
  | Total energy evaluation                    :        0.000 s           0.001 s
------------------------------------------------------------

------------------------------------------------------------
          Begin self-consistency iteration #    7

  Date     :  20220120, Time     :  151930.618
------------------------------------------------------------
  Evaluating new KS density.
  Integration grid: deviation in total charge (<rho> - N_e) =  -5.309164E-08
  | <rho_up-rho_dn> = N_up-N_dn =      0.2324; <|rho_up-rho_dn|> =      0.2324
  Pulay mixing of updated and previous charge densities.

  Evaluating partitioned Hartree potential by multipole expansion.
  | Analytical far-field extrapolation by fixed multipoles:
  | Hartree multipole sum: apparent total charge =  -0.145645E-04
  Summing up the Hartree potential.
  Time summed over all CPUs for potential: real work        0.032 s, elapsed        0.033 s
  | RMS charge density error from multipole expansion :   0.597619E-02

  Integrating Hamiltonian matrix: batch-based integration.
  Time summed over all CPUs for integration: real work        0.070 s, elapsed        0.074 s

  Updating Kohn-Sham eigenvalues, eigenvectors, occupation numbers, and Fermi level.
  Solving generalized eigenproblem
  Solving real symmetric generalised eigenvalue problem by standard ScaLAPACK.
  Using Cholesky factor for transformation
  Using 1-stage real ELPA solver
  Solving real symmetric generalised eigenvalue problem by standard ScaLAPACK.
  Using Cholesky factor for transformation
  Using 1-stage real ELPA solver
  Determining occupation numbers for Kohn-Sham eigenstates.
  | Chemical potential (Fermi level) in eV                 : -.16145671E+02
  | Error in electron count due to remaining E_F inaccuracy: 0.00000000E+00
  | Maximum occupation number of highest empty state:  0.00E+00

  Current spin moment of the entire structure :
  | N = N_up - N_down :    0.00
  | S                 :    0.00
  | J                 :    1.00

  Highest occupied state (VBM) at    -18.63235901 eV
  | Occupation number:      1.00000000
  | Spin channel:        2

  Lowest unoccupied state (CBM) at    -0.52249037 eV
  | Occupation number:      0.00000000
  | Spin channel:        1

  Overall HOMO-LUMO gap:     18.10986865 eV.

  Total energy components:
  | Sum of eigenvalues            :          -1.38243909 Ha         -37.61808172 eV
  | XC energy correction          :          -0.79519424 Ha         -21.63833613 eV
  | XC potential correction       :           1.01637117 Ha          27.65686669 eV
  | Free-atom electrostatic energy:           1.15340670 Ha          31.38579318 eV
  | Hartree energy correction     :          -0.28685596 Ha          -7.80574773 eV
  | van der Waals energy corr.    :           0.00000000 Ha           0.00000000 eV
  | Entropy correction            :           0.00000000 Ha           0.00000000 eV
  | ---------------------------
  | Total energy                  :          -0.29471142 Ha          -8.01950571 eV
  | Total energy, T -> 0          :          -0.29471142 Ha          -8.01950571 eV  <-- do not rely on this value for anything but (periodic) metals
  | Electronic free energy        :          -0.29471142 Ha          -8.01950571 eV

  Derived energy quantities:
  | Kinetic energy                :           1.78568073 Ha          48.59084497 eV
  | Electrostatic energy          :          -1.28519791 Ha         -34.97201455 eV
  | Energy correction for multipole
  | error in Hartree potential    :           0.00057094 Ha           0.01553610 eV
  | Sum of eigenvalues per atom                           :         -18.80904086 eV
  | Total energy (T->0) per atom                          :          -4.00975285 eV  <-- do not rely on this value for anything but (periodic) metals
  | Electronic free energy per atom                       :          -4.00975285 eV

  Self-consistency convergence accuracy:
  | Change of charge/spin density : 0.2284E+00 0.2939E-01
  | Change of sum of eigenvalues  : 0.4518E+01 eV
  | Change of total energy        : 0.9443E+00 eV

  End self-consistency iteration #     7       :  max(cpu_time)    wall_clock(cpu1)
  | Time for this iteration                    :        0.026 s           0.026 s
  | Charge density update                      :        0.006 s           0.006 s
  | Density mixing                             :        0.002 s           0.002 s
  | Hartree multipole update                   :        0.001 s           0.001 s
  | Hartree multipole summation                :        0.004 s           0.005 s
  | Integration                                :        0.009 s           0.009 s
  | Solution of K.-S. eqns.                    :        0.001 s           0.001 s
  | Total energy evaluation                    :        0.000 s           0.000 s
------------------------------------------------------------

------------------------------------------------------------
          Begin self-consistency iteration #    8

  Date     :  20220120, Time     :  151930.649
------------------------------------------------------------
  Evaluating new KS density.
  Integration grid: deviation in total charge (<rho> - N_e) =  -1.347780E-07
  | <rho_up-rho_dn> = N_up-N_dn =     -0.0736; <|rho_up-rho_dn|> =      0.0736
  Pulay mixing of updated and previous charge densities.

  Evaluating partitioned Hartree potential by multipole expansion.
  | Analytical far-field extrapolation by fixed multipoles:
  | Hartree multipole sum: apparent total charge =  -0.610398E-05
  Summing up the Hartree potential.
  Time summed over all CPUs for potential: real work        0.032 s, elapsed        0.033 s
  | RMS charge density error from multipole expansion :   0.133339E-01

  Integrating Hamiltonian matrix: batch-based integration.
  Time summed over all CPUs for integration: real work        0.066 s, elapsed        0.070 s

  Updating Kohn-Sham eigenvalues, eigenvectors, occupation numbers, and Fermi level.
  Solving generalized eigenproblem
  Solving real symmetric generalised eigenvalue problem by standard ScaLAPACK.
  Using Cholesky factor for transformation
  Using 1-stage real ELPA solver
  Solving real symmetric generalised eigenvalue problem by standard ScaLAPACK.
  Using Cholesky factor for transformation
  Using 1-stage real ELPA solver
  Determining occupation numbers for Kohn-Sham eigenstates.
  | Chemical potential (Fermi level) in eV                 : -.53380185E+01
  | Error in electron count due to remaining E_F inaccuracy: 0.00000000E+00
  | Maximum occupation number of highest empty state:  0.00E+00

  Current spin moment of the entire structure :
  | N = N_up - N_down :    0.00
  | S                 :    0.00
  | J                 :    1.00

  Highest occupied state (VBM) at     -7.46047808 eV
  | Occupation number:      1.00000000
  | Spin channel:        2

  Lowest unoccupied state (CBM) at     0.66265475 eV
  | Occupation number:      0.00000000
  | Spin channel:        1

  Overall HOMO-LUMO gap:      8.12313283 eV.

  Total energy components:
  | Sum of eigenvalues            :          -0.55972392 Ha         -15.23086285 eV
  | XC energy correction          :          -1.25596248 Ha         -34.17647794 eV
  | XC potential correction       :           1.61301435 Ha          43.89235375 eV
  | Free-atom electrostatic energy:           1.15340670 Ha          31.38579318 eV
  | Hartree energy correction     :          -1.26378391 Ha         -34.38930977 eV
  | van der Waals energy corr.    :           0.00000000 Ha           0.00000000 eV
  | Entropy correction            :           0.00000000 Ha           0.00000000 eV
  | ---------------------------
  | Total energy                  :          -0.31304925 Ha          -8.51850363 eV
  | Total energy, T -> 0          :          -0.31304925 Ha          -8.51850363 eV  <-- do not rely on this value for anything but (periodic) metals
  | Electronic free energy        :          -0.31304925 Ha          -8.51850363 eV

  Derived energy quantities:
  | Kinetic energy                :           3.39185351 Ha          92.29702997 eV
  | Electrostatic energy          :          -2.44894028 Ha         -66.63905565 eV
  | Energy correction for multipole
  | error in Hartree potential    :           0.00112960 Ha           0.03073804 eV
  | Sum of eigenvalues per atom                           :          -7.61543142 eV
  | Total energy (T->0) per atom                          :          -4.25925182 eV  <-- do not rely on this value for anything but (periodic) metals
  | Electronic free energy per atom                       :          -4.25925182 eV

  Self-consistency convergence accuracy:
  | Change of charge/spin density : 0.1213E+00 0.3598E-01
  | Change of sum of eigenvalues  : 0.2239E+02 eV
  | Change of total energy        : -.4990E+00 eV

  End self-consistency iteration #     8       :  max(cpu_time)    wall_clock(cpu1)
  | Time for this iteration                    :        0.026 s           0.024 s
  | Charge density update                      :        0.007 s           0.005 s
  | Density mixing                             :        0.002 s           0.002 s
  | Hartree multipole update                   :        0.001 s           0.001 s
  | Hartree multipole summation                :        0.004 s           0.005 s
  | Integration                                :        0.009 s           0.009 s
  | Solution of K.-S. eqns.                    :        0.001 s           0.001 s
  | Total energy evaluation                    :        0.000 s           0.000 s
------------------------------------------------------------

------------------------------------------------------------
          Begin self-consistency iteration #    9

  Date     :  20220120, Time     :  151930.678
------------------------------------------------------------
  Evaluating new KS density.
  Integration grid: deviation in total charge (<rho> - N_e) =  -4.067959E-08
  | <rho_up-rho_dn> = N_up-N_dn =     -0.0201; <|rho_up-rho_dn|> =      0.1941
  Pulay mixing of updated and previous charge densities.

  Evaluating partitioned Hartree potential by multipole expansion.
  | Analytical far-field extrapolation by fixed multipoles:
  | Hartree multipole sum: apparent total charge =  -0.706008E-05
  Summing up the Hartree potential.
  Time summed over all CPUs for potential: real work        0.032 s, elapsed        0.033 s
  | RMS charge density error from multipole expansion :   0.132994E-01

  Integrating Hamiltonian matrix: batch-based integration.
  Time summed over all CPUs for integration: real work        0.066 s, elapsed        0.071 s

  Updating Kohn-Sham eigenvalues, eigenvectors, occupation numbers, and Fermi level.
  Solving generalized eigenproblem
  Solving real symmetric generalised eigenvalue problem by standard ScaLAPACK.
  Using Cholesky factor for transformation
  Using 1-stage real ELPA solver
  Solving real symmetric generalised eigenvalue problem by standard ScaLAPACK.
  Using Cholesky factor for transformation
  Using 1-stage real ELPA solver
  Determining occupation numbers for Kohn-Sham eigenstates.
  | Chemical potential (Fermi level) in eV                 : -.54505922E+01
  | Error in electron count due to remaining E_F inaccuracy: 0.00000000E+00
  | Maximum occupation number of highest empty state:  0.00E+00

  Current spin moment of the entire structure :
  | N = N_up - N_down :    0.00
  | S                 :    0.00
  | J                 :    1.00

  Highest occupied state (VBM) at     -7.60259403 eV
  | Occupation number:      1.00000000
  | Spin channel:        2

  Lowest unoccupied state (CBM) at     0.62479823 eV
  | Occupation number:      0.00000000
  | Spin channel:        1

  Overall HOMO-LUMO gap:      8.22739226 eV.

  Total energy components:
  | Sum of eigenvalues            :          -0.56920237 Ha         -15.48878442 eV
  | XC energy correction          :          -1.25202057 Ha         -34.06921310 eV
  | XC potential correction       :           1.60791841 Ha          43.75368613 eV
  | Free-atom electrostatic energy:           1.15340670 Ha          31.38579318 eV
  | Hartree energy correction     :          -1.25057895 Ha         -34.02998475 eV
  | van der Waals energy corr.    :           0.00000000 Ha           0.00000000 eV
  | Entropy correction            :           0.00000000 Ha           0.00000000 eV
  | ---------------------------
  | Total energy                  :          -0.31047678 Ha          -8.44850296 eV
  | Total energy, T -> 0          :          -0.31047678 Ha          -8.44850296 eV  <-- do not rely on this value for anything but (periodic) metals
  | Electronic free energy        :          -0.31047678 Ha          -8.44850296 eV

  Derived energy quantities:
  | Kinetic energy                :           3.38536074 Ha          92.12035263 eV
  | Electrostatic energy          :          -2.44381694 Ha         -66.49964249 eV
  | Energy correction for multipole
  | error in Hartree potential    :           0.00112788 Ha           0.03069130 eV
  | Sum of eigenvalues per atom                           :          -7.74439221 eV
  | Total energy (T->0) per atom                          :          -4.22425148 eV  <-- do not rely on this value for anything but (periodic) metals
  | Electronic free energy per atom                       :          -4.22425148 eV

  Self-consistency convergence accuracy:
  | Change of charge/spin density : 0.5331E+00 0.1035E+00
  | Change of sum of eigenvalues  : -.2579E+00 eV
  | Change of total energy        : 0.7000E-01 eV

  End self-consistency iteration #     9       :  max(cpu_time)    wall_clock(cpu1)
  | Time for this iteration                    :        0.026 s           0.025 s
  | Charge density update                      :        0.007 s           0.006 s
  | Density mixing                             :        0.002 s           0.001 s
  | Hartree multipole update                   :        0.001 s           0.002 s
  | Hartree multipole summation                :        0.004 s           0.004 s
  | Integration                                :        0.009 s           0.009 s
  | Solution of K.-S. eqns.                    :        0.001 s           0.002 s
  | Total energy evaluation                    :        0.000 s           0.001 s
------------------------------------------------------------

------------------------------------------------------------
          Begin self-consistency iteration #   10

  Date     :  20220120, Time     :  151930.709
------------------------------------------------------------
  Evaluating new KS density.
  Integration grid: deviation in total charge (<rho> - N_e) =  -3.605698E-08
  | <rho_up-rho_dn> = N_up-N_dn =     -0.0125; <|rho_up-rho_dn|> =      0.1893
  Pulay mixing of updated and previous charge densities.

  Evaluating partitioned Hartree potential by multipole expansion.
  | Analytical far-field extrapolation by fixed multipoles:
  | Hartree multipole sum: apparent total charge =  -0.143672E-04
  Summing up the Hartree potential.
  Time summed over all CPUs for potential: real work        0.032 s, elapsed        0.033 s
  | RMS charge density error from multipole expansion :   0.130034E-01

  Integrating Hamiltonian matrix: batch-based integration.
  Time summed over all CPUs for integration: real work        0.066 s, elapsed        0.071 s

  Updating Kohn-Sham eigenvalues, eigenvectors, occupation numbers, and Fermi level.
  Solving generalized eigenproblem
  Solving real symmetric generalised eigenvalue problem by standard ScaLAPACK.
  Using Cholesky factor for transformation
  Using 1-stage real ELPA solver
  Solving real symmetric generalised eigenvalue problem by standard ScaLAPACK.
  Using Cholesky factor for transformation
  Using 1-stage real ELPA solver
  Determining occupation numbers for Kohn-Sham eigenstates.
  | Chemical potential (Fermi level) in eV                 : -.65893537E+01
  | Error in electron count due to remaining E_F inaccuracy: 0.00000000E+00
  | Maximum occupation number of highest empty state:  0.00E+00

  Current spin moment of the entire structure :
  | N = N_up - N_down :    0.00
  | S                 :    0.00
  | J                 :    1.00

  Highest occupied state (VBM) at     -8.78841708 eV
  | Occupation number:      1.00000000
  | Spin channel:        2

  Lowest unoccupied state (CBM) at     0.26927129 eV
  | Occupation number:      0.00000000
  | Spin channel:        1

  Overall HOMO-LUMO gap:      9.05768837 eV.

  Total energy components:
  | Sum of eigenvalues            :          -0.65596112 Ha         -17.84961012 eV
  | XC energy correction          :          -1.21542997 Ha         -33.07353224 eV
  | XC potential correction       :           1.56061409 Ha          42.46647014 eV
  | Free-atom electrostatic energy:           1.15340670 Ha          31.38579318 eV
  | Hartree energy correction     :          -1.12775120 Ha         -30.68767141 eV
  | van der Waals energy corr.    :           0.00000000 Ha           0.00000000 eV
  | Entropy correction            :           0.00000000 Ha           0.00000000 eV
  | ---------------------------
  | Total energy                  :          -0.28512149 Ha          -7.75855045 eV
  | Total energy, T -> 0          :          -0.28512149 Ha          -7.75855045 eV  <-- do not rely on this value for anything but (periodic) metals
  | Electronic free energy        :          -0.28512149 Ha          -7.75855045 eV

  Derived energy quantities:
  | Kinetic energy                :           3.33118886 Ha          90.64626084 eV
  | Electrostatic energy          :          -2.40088038 Ha         -65.33127905 eV
  | Energy correction for multipole
  | error in Hartree potential    :           0.00111262 Ha           0.03027588 eV
  | Sum of eigenvalues per atom                           :          -8.92480506 eV
  | Total energy (T->0) per atom                          :          -3.87927522 eV  <-- do not rely on this value for anything but (periodic) metals
  | Electronic free energy per atom                       :          -3.87927522 eV

  Self-consistency convergence accuracy:
  | Change of charge/spin density : 0.5287E+00 0.1007E+00
  | Change of sum of eigenvalues  : -.2361E+01 eV
  | Change of total energy        : 0.6900E+00 eV

  End self-consistency iteration #    10       :  max(cpu_time)    wall_clock(cpu1)
  | Time for this iteration                    :        0.026 s           0.025 s
  | Charge density update                      :        0.007 s           0.006 s
  | Density mixing                             :        0.002 s           0.001 s
  | Hartree multipole update                   :        0.001 s           0.002 s
  | Hartree multipole summation                :        0.004 s           0.004 s
  | Integration                                :        0.009 s           0.009 s
  | Solution of K.-S. eqns.                    :        0.001 s           0.002 s
  | Total energy evaluation                    :        0.000 s           0.001 s
------------------------------------------------------------

------------------------------------------------------------
          Begin self-consistency iteration #   11

  Date     :  20220120, Time     :  151930.739
------------------------------------------------------------
  Evaluating new KS density.
  Integration grid: deviation in total charge (<rho> - N_e) =  -3.539245E-08
  | <rho_up-rho_dn> = N_up-N_dn =     -0.0007; <|rho_up-rho_dn|> =      0.1818
  Pulay mixing of updated and previous charge densities.

  Evaluating partitioned Hartree potential by multipole expansion.
  | Analytical far-field extrapolation by fixed multipoles:
  | Hartree multipole sum: apparent total charge =   0.994714E-06
  Summing up the Hartree potential.
  Time summed over all CPUs for potential: real work        0.032 s, elapsed        0.033 s
  | RMS charge density error from multipole expansion :   0.136384E-01

  Integrating Hamiltonian matrix: batch-based integration.
  Time summed over all CPUs for integration: real work        0.066 s, elapsed        0.070 s

  Updating Kohn-Sham eigenvalues, eigenvectors, occupation numbers, and Fermi level.
  Solving generalized eigenproblem
  Solving real symmetric generalised eigenvalue problem by standard ScaLAPACK.
  Using Cholesky factor for transformation
  Using 1-stage real ELPA solver
  Solving real symmetric generalised eigenvalue problem by standard ScaLAPACK.
  Using Cholesky factor for transformation
  Using 1-stage real ELPA solver
  Determining occupation numbers for Kohn-Sham eigenstates.
  | Chemical potential (Fermi level) in eV                 : -.42693775E+01
  | Error in electron count due to remaining E_F inaccuracy: 0.00000000E+00
  | Maximum occupation number of highest empty state:  0.00E+00

  Current spin moment of the entire structure :
  | N = N_up - N_down :    0.00
  | S                 :    0.00
  | J                 :    1.00

  Highest occupied state (VBM) at     -6.45372688 eV
  | Occupation number:      1.00000000
  | Spin channel:        2

  Lowest unoccupied state (CBM) at     1.12383114 eV
  | Occupation number:      0.00000000
  | Spin channel:        1

  Overall HOMO-LUMO gap:      7.57755801 eV.

  Total energy components:
  | Sum of eigenvalues            :          -0.48198549 Ha         -13.11549240 eV
  | XC energy correction          :          -1.29465281 Ha         -35.22929550 eV
  | XC potential correction       :           1.66305923 Ha          45.25414417 eV
  | Free-atom electrostatic energy:           1.15340670 Ha          31.38579318 eV
  | Hartree energy correction     :          -1.38658559 Ha         -37.73091356 eV
  | van der Waals energy corr.    :           0.00000000 Ha           0.00000000 eV
  | Entropy correction            :           0.00000000 Ha           0.00000000 eV
  | ---------------------------
  | Total energy                  :          -0.34675796 Ha          -9.43576411 eV
  | Total energy, T -> 0          :          -0.34675796 Ha          -9.43576411 eV  <-- do not rely on this value for anything but (periodic) metals
  | Electronic free energy        :          -0.34675796 Ha          -9.43576411 eV

  Derived energy quantities:
  | Kinetic energy                :           3.43400370 Ha          93.44399517 eV
  | Electrostatic energy          :          -2.48610885 Ha         -67.65046378 eV
  | Energy correction for multipole
  | error in Hartree potential    :           0.00114563 Ha           0.03117424 eV
  | Sum of eigenvalues per atom                           :          -6.55774620 eV
[...]
  | Change of sum of eigenvalues  : -.3007E-03 eV
  | Change of total energy        : -.7952E-07 eV

  End self-consistency iteration #    23       :  max(cpu_time)    wall_clock(cpu1)
  | Time for this iteration                    :        0.027 s           0.026 s
  | Charge density update                      :        0.007 s           0.005 s
  | Density mixing                             :        0.002 s           0.002 s
  | Hartree multipole update                   :        0.001 s           0.002 s
  | Hartree multipole summation                :        0.005 s           0.004 s
  | Integration                                :        0.010 s           0.010 s
  | Solution of K.-S. eqns.                    :        0.001 s           0.001 s
  | Total energy evaluation                    :        0.000 s           0.000 s
------------------------------------------------------------

------------------------------------------------------------
          Begin self-consistency iteration #   24

  Date     :  20220120, Time     :  151931.128
------------------------------------------------------------
  Evaluating new KS density.
  Integration grid: deviation in total charge (<rho> - N_e) =   2.287974E-10
  | <rho_up-rho_dn> = N_up-N_dn =      0.0000; <|rho_up-rho_dn|> =      0.0000
  Pulay mixing of updated and previous charge densities.

  Evaluating partitioned Hartree potential by multipole expansion.
  | Analytical far-field extrapolation by fixed multipoles:
  | Hartree multipole sum: apparent total charge =   0.604972E-05
  Summing up the Hartree potential.
  Time summed over all CPUs for potential: real work        0.032 s, elapsed        0.034 s
  | RMS charge density error from multipole expansion :   0.670711E-02

  Integrating Hamiltonian matrix: batch-based integration.
  Time summed over all CPUs for integration: real work        0.070 s, elapsed        0.074 s

  Updating Kohn-Sham eigenvalues, eigenvectors, occupation numbers, and Fermi level.
  Solving generalized eigenproblem
  Solving real symmetric generalised eigenvalue problem by standard ScaLAPACK.
  Using Cholesky factor for transformation
  Using 1-stage real ELPA solver
  Solving real symmetric generalised eigenvalue problem by standard ScaLAPACK.
  Using Cholesky factor for transformation
  Using 1-stage real ELPA solver
  Determining occupation numbers for Kohn-Sham eigenstates.
  | Chemical potential (Fermi level) in eV                 : -.12125182E+02
  | Error in electron count due to remaining E_F inaccuracy: 0.00000000E+00
  | Maximum occupation number of highest empty state:  0.00E+00

  Current spin moment of the entire structure :
  | N = N_up - N_down :    0.00
  | S                 :    0.00
  | J                 :    1.00

  Highest occupied state (VBM) at    -13.99672759 eV
  | Occupation number:      1.00000000
  | Spin channel:        1

  Lowest unoccupied state (CBM) at     1.19344238 eV
  | Occupation number:      0.00000000
  | Spin channel:        1

  Overall HOMO-LUMO gap:     15.19016997 eV.

  Total energy components:
  | Sum of eigenvalues            :          -1.02874059 Ha         -27.99345566 eV
  | XC energy correction          :          -0.93034486 Ha         -25.31597178 eV
  | XC potential correction       :           1.19270728 Ha          32.45521632 eV
  | Free-atom electrostatic energy:           1.15340670 Ha          31.38579318 eV
  | Hartree energy correction     :          -0.65761167 Ha         -17.89452396 eV
  | van der Waals energy corr.    :           0.00000000 Ha           0.00000000 eV
  | Entropy correction            :           0.00000000 Ha           0.00000000 eV
  | ---------------------------
  | Total energy                  :          -0.27058314 Ha          -7.36294189 eV
  | Total energy, T -> 0          :          -0.27058314 Ha          -7.36294189 eV  <-- do not rely on this value for anything but (periodic) metals
  | Electronic free energy        :          -0.27058314 Ha          -7.36294189 eV

  Derived energy quantities:
  | Kinetic energy                :           2.10433334 Ha          57.26182366 eV
  | Electrostatic energy          :          -1.44457162 Ha         -39.30879378 eV
  | Energy correction for multipole
  | error in Hartree potential    :           0.00062288 Ha           0.01694952 eV
  | Sum of eigenvalues per atom                           :         -13.99672783 eV
  | Total energy (T->0) per atom                          :          -3.68147095 eV  <-- do not rely on this value for anything but (periodic) metals
  | Electronic free energy per atom                       :          -3.68147095 eV

  Self-consistency convergence accuracy:
  | Change of charge/spin density : 0.6316E-06 0.1550E-06
  | Change of sum of eigenvalues  : -.1648E-04 eV
  | Change of total energy        : -.5603E-08 eV

  End self-consistency iteration #    24       :  max(cpu_time)    wall_clock(cpu1)
  | Time for this iteration                    :        0.026 s           0.025 s
  | Charge density update                      :        0.006 s           0.005 s
  | Density mixing                             :        0.002 s           0.002 s
  | Hartree multipole update                   :        0.001 s           0.001 s
  | Hartree multipole summation                :        0.004 s           0.005 s
  | Integration                                :        0.009 s           0.009 s
  | Solution of K.-S. eqns.                    :        0.001 s           0.002 s
  | Total energy evaluation                    :        0.000 s           0.001 s
------------------------------------------------------------

------------------------------------------------------------
          Begin self-consistency iteration #   25

  Date     :  20220120, Time     :  151931.159
------------------------------------------------------------
  Evaluating new KS density.
  Integration grid: deviation in total charge (<rho> - N_e) =   1.194636E-10
  | <rho_up-rho_dn> = N_up-N_dn =      0.0000; <|rho_up-rho_dn|> =      0.0000
  Pulay mixing of updated and previous charge densities.

  Evaluating partitioned Hartree potential by multipole expansion.
  | Analytical far-field extrapolation by fixed multipoles:
  | Hartree multipole sum: apparent total charge =   0.605011E-05
  Summing up the Hartree potential.
  Time summed over all CPUs for potential: real work        0.032 s, elapsed        0.034 s
  | RMS charge density error from multipole expansion :   0.670710E-02

  Integrating Hamiltonian matrix: batch-based integration.
  Time summed over all CPUs for integration: real work        0.070 s, elapsed        0.075 s

  Updating Kohn-Sham eigenvalues, eigenvectors, occupation numbers, and Fermi level.
  Solving generalized eigenproblem
  Solving real symmetric generalised eigenvalue problem by standard ScaLAPACK.
  Using Cholesky factor for transformation
  Using 1-stage real ELPA solver
  Solving real symmetric generalised eigenvalue problem by standard ScaLAPACK.
  Using Cholesky factor for transformation
  Using 1-stage real ELPA solver
  Determining occupation numbers for Kohn-Sham eigenstates.
  | Chemical potential (Fermi level) in eV                 : -.12125385E+02
  | Error in electron count due to remaining E_F inaccuracy: 0.00000000E+00
  | Maximum occupation number of highest empty state:  0.00E+00

  Current spin moment of the entire structure :
  | N = N_up - N_down :    0.00
  | S                 :    0.00
  | J                 :    1.00

  Highest occupied state (VBM) at    -13.99672450 eV
  | Occupation number:      1.00000000
  | Spin channel:        2

  Lowest unoccupied state (CBM) at     1.19393454 eV
  | Occupation number:      0.00000000
  | Spin channel:        1

  Overall HOMO-LUMO gap:     15.19065903 eV.

  Total energy components:
  | Sum of eigenvalues            :          -1.02874034 Ha         -27.99344907 eV
  | XC energy correction          :          -0.93034492 Ha         -25.31597330 eV
  | XC potential correction       :           1.19270734 Ha          32.45521803 eV
  | Free-atom electrostatic energy:           1.15340670 Ha          31.38579318 eV
  | Hartree energy correction     :          -0.65761192 Ha         -17.89453074 eV
  | van der Waals energy corr.    :           0.00000000 Ha           0.00000000 eV
  | Entropy correction            :           0.00000000 Ha           0.00000000 eV
  | ---------------------------
  | Total energy                  :          -0.27058314 Ha          -7.36294190 eV
  | Total energy, T -> 0          :          -0.27058314 Ha          -7.36294190 eV  <-- do not rely on this value for anything but (periodic) metals
  | Electronic free energy        :          -0.27058314 Ha          -7.36294190 eV

  Derived energy quantities:
  | Kinetic energy                :           2.10433336 Ha          57.26182429 eV
  | Electrostatic energy          :          -1.44457159 Ha         -39.30879289 eV
  | Energy correction for multipole
  | error in Hartree potential    :           0.00062288 Ha           0.01694950 eV
  | Sum of eigenvalues per atom                           :         -13.99672454 eV
  | Total energy (T->0) per atom                          :          -3.68147095 eV  <-- do not rely on this value for anything but (periodic) metals
  | Electronic free energy per atom                       :          -3.68147095 eV

  Self-consistency convergence accuracy:
  | Change of charge/spin density : 0.2912E-06 0.1071E-06
  | Change of sum of eigenvalues  : 0.6586E-05 eV
  | Change of total energy        : -.6184E-08 eV

  Writing Kohn-Sham eigenvalues.

  Spin-up eigenvalues:

  State    Occupation    Eigenvalue [Ha]    Eigenvalue [eV]
      1       1.00000          -0.514370          -13.99672
      2       0.00000           0.043876            1.19393
      3       0.00000           0.061897            1.68430
      4       0.00000           0.251068            6.83190
      5       0.00000           0.335237            9.12226
      6       0.00000           0.381568           10.38300
      7       0.00000           0.381568           10.38300
      8       0.00000           0.715159           19.46046
      9       0.00000           0.715159           19.46046
     10       0.00000           0.827304           22.51209
     11       0.00000           0.861347           23.43844

  Spin-down eigenvalues:

  State    Occupation    Eigenvalue [Ha]    Eigenvalue [eV]
      1       1.00000          -0.514370          -13.99672
      2       0.00000           0.043879            1.19400
      3       0.00000           0.061899            1.68435
      4       0.00000           0.251069            6.83193
      5       0.00000           0.335239            9.12231
      6       0.00000           0.381568           10.38300
      7       0.00000           0.381568           10.38300
      8       0.00000           0.715159           19.46046
      9       0.00000           0.715159           19.46046
     10       0.00000           0.827304           22.51209
     11       0.00000           0.861347           23.43845

  Current spin moment of the entire structure :
  | N = N_up - N_down :    0.00
  | S                 :    0.00
  | J                 :    1.00

  Highest occupied state (VBM) at    -13.99672450 eV
  | Occupation number:      1.00000000
  | Spin channel:        2

  Lowest unoccupied state (CBM) at     1.19393454 eV
  | Occupation number:      0.00000000
  | Spin channel:        1

  Overall HOMO-LUMO gap:     15.19065903 eV.

  Self-consistency cycle converged.

  End self-consistency iteration #    25       :  max(cpu_time)    wall_clock(cpu1)
  | Time for this iteration                    :        0.028 s           0.029 s
  | Charge density update                      :        0.008 s           0.007 s
  | Density mixing                             :        0.002 s           0.002 s
  | Hartree multipole update                   :        0.002 s           0.002 s
  | Hartree multipole summation                :        0.004 s           0.004 s
  | Integration                                :        0.009 s           0.010 s
  | Solution of K.-S. eqns.                    :        0.001 s           0.001 s
  | Total energy evaluation                    :        0.000 s           0.000 s
------------------------------------------------------------
  Obtaining max. number of non-zero basis functions in each batch .
  Evaluating KS electron density on previously omitted grid points.
  Evaluating non-empirical van der Waals correction (Tkatchenko/Scheffler 2009).
  Performing Hirshfeld analysis of fragment charges and moments.
  ----------------------------------------------------------------------
  | Atom     1: H
  |   Hirshfeld charge        :     -0.00000055
  |   Free atom volume        :     10.31539447
  |   Hirshfeld volume        :      2.92808172
  |   Hirshfeld spin moment   :      0.00000007
  |   Hirshfeld dipole vector :     -0.00000000      -0.00000000      -0.03772876
  |   Hirshfeld dipole moment :      0.03772876
  |   Hirshfeld second moments:      0.20029942      -0.00000000       0.00000000
  |                                 -0.00000000       0.20029942      -0.00000000
  |                                  0.00000000      -0.00000000       0.19156920
  ----------------------------------------------------------------------
  | Atom     2: H
  |   Hirshfeld charge        :     -0.00000055
  |   Free atom volume        :     10.31539447
  |   Hirshfeld volume        :      2.92808172
  |   Hirshfeld spin moment   :      0.00000007
  |   Hirshfeld dipole vector :      0.00000000      -0.00000000       0.03772876
  |   Hirshfeld dipole moment :      0.03772876
  |   Hirshfeld second moments:      0.20029942      -0.00000000       0.00000000
  |                                 -0.00000000       0.20029942       0.00000000
  |                                  0.00000000       0.00000000       0.19156920
  ----------------------------------------------------------------------


  Total energy components:
  | Sum of eigenvalues            :          -1.02874034 Ha         -27.99344907 eV
  | XC energy correction          :          -0.93034492 Ha         -25.31597330 eV
  | XC potential correction       :           1.19270734 Ha          32.45521803 eV
  | Free-atom electrostatic energy:           1.15340670 Ha          31.38579318 eV
  | Hartree energy correction     :          -0.65761192 Ha         -17.89453074 eV
  | van der Waals energy corr.    :          -0.00000155 Ha          -0.00004216 eV
  | Entropy correction            :           0.00000000 Ha           0.00000000 eV
  | ---------------------------
  | Total energy                  :          -0.27058469 Ha          -7.36298406 eV
  | Total energy, T -> 0          :          -0.27058469 Ha          -7.36298406 eV  <-- do not rely on this value for anything but (periodic) metals
  | Electronic free energy        :          -0.27058469 Ha          -7.36298406 eV

  Derived energy quantities:
  | Kinetic energy                :           2.10433336 Ha          57.26182429 eV
  | Electrostatic energy          :          -1.44457159 Ha         -39.30879289 eV
  | Energy correction for multipole
  | error in Hartree potential    :           0.00062288 Ha           0.01694950 eV
  | Sum of eigenvalues per atom                           :         -13.99672454 eV
  | Total energy (T->0) per atom                          :          -3.68149203 eV  <-- do not rely on this value for anything but (periodic) metals
  | Electronic free energy per atom                       :          -3.68149203 eV
  Timings for VdW correction (Tkatchenko-Scheffler 2009 or later):
  | CPU time:        0.003 s, Wall clock time:        0.003 s.

  Energy and forces in a compact form:
  | Total energy uncorrected      :         -0.736298405663015E+01 eV
  | Total energy corrected        :         -0.736298405663015E+01 eV  <-- do not rely on this value for anything but (periodic) metals
  | Electronic free energy        :         -0.736298405663015E+01 eV

  ------------------------------------ 
  Start decomposition of the XC Energy 
  ------------------------------------ 
  Hartree-Fock part   :          0.000000000 Ha              0.000000000 eV
  ------------------------------------ 
  X Energy            :         -0.886837070 Ha            -24.132064488 eV
  C Energy GGA        :         -0.043507849 Ha             -1.183908809 eV
  Total XC Energy     :         -0.930344919 Ha            -25.315973297 eV
  LDA X and C from self-consistent density 
  X Energy LDA        :         -0.775787534 Ha            -21.110252885 eV
  C Energy LDA        :         -0.106896297 Ha             -2.908796228 eV
  ------------------------------------ 
  End decomposition of the XC Energy 
  ------------------------------------ 

------------------------------------------------------------------------------
  Final output of selected total energy values:

  The following output summarizes some interesting total energy values
  at the end of a run (AFTER all relaxation, molecular dynamics, etc.).

  | Total energy of the DFT / Hartree-Fock s.c.f. calculation      :             -7.362984057 eV
  | Final zero-broadening corrected energy (caution - metals only) :             -7.362984057 eV
  | For reference only, the value of 1 Hartree used in FHI-aims is :             27.211384500 eV

  Before relying on these values, please be sure to understand exactly which
  total energy value is referred to by a given number. Different objects may
  all carry the same name 'total energy'. Definitions:

  Total energy of the DFT / Hartree-Fock s.c.f. calculation:
  | Note that this energy does not include ANY quantities calculated after the
  | s.c.f. cycle, in particular not ANY RPA, MP2, etc. many-body perturbation terms.

  Final zero-broadening corrected energy:
  | For metallic systems only, a broadening of the occupation numbers at the Fermi
  | level can be extrapolated back to zero broadening by an electron-gas inspired
  | formula. For all systems that are not real metals, this value can be
  | meaningless and should be avoided.

------------------------------------------------------------------------------

------------------------------------------------------------
          Leaving FHI-aims.
          Date     :  20220120, Time     :  151931.196

          Computational steps:
          | Number of self-consistency cycles          :           25

          Detailed time accounting                     :  max(cpu_time)    wall_clock(cpu1)
          | Total time                                 :        0.838 s           0.941 s
          | Preparation time                           :        0.077 s           0.079 s
          | Grid partitioning                          :        0.007 s           0.007 s
          | Preloading free-atom quantities on grid    :        0.005 s           0.004 s
          | Free-atom superposition energy             :        0.002 s           0.002 s
          | Total time for integrations                :        0.244 s           0.245 s
          | Total time for solution of K.-S. equations :        0.042 s           0.046 s
          | Total time for density update              :        0.168 s           0.140 s
          | Total time for mixing                      :        0.042 s           0.042 s
          | Total time for Hartree multipole update    :        0.033 s           0.033 s
          | Total time for Hartree multipole sum       :        0.117 s           0.122 s
          | Total time for total energy evaluation     :        0.004 s           0.014 s
          | Total time for scaled ZORA corrections     :        0.000 s           0.000 s
          | Total time for vdW correction              :        0.003 s           0.003 s

          Have a nice day.
------------------------------------------------------------
