  MPI-parallelism will be employed.
------------------------------------------------------------
          Invoking FHI-aims ...
          Version 052014
          Git rev. (modified): 096c982 Merge branch master of fhiaims:/pub/localo[...]
          Compiled on 2016/12/16 at 15:22:01 on host login02.hpc.iitd.ac.in.

          When using FHI-aims, please cite the following reference:

          Volker Blum, Ralf Gehrke, Felix Hanke, Paula Havu,
          Ville Havu, Xinguo Ren, Karsten Reuter, and Matthias Scheffler,
          'Ab Initio Molecular Simulations with Numeric Atom-Centered Orbitals: FHI-aims',
          Computer Physics Communications 180, 2175-2196 (2009)

          For any questions about FHI-aims, please visit the aimsclub website
          with its forums and wiki. Contributions to both the forums and the
          wiki are warmly encouraged - they are for you, and everyone is welcome there.

------------------------------------------------------------

  Date     :  20220120, Time     :  153442.131
  Time zero on CPU 1             :   0.100740000000000E-01  s.
  Internal wall clock time zero  :           411924882.131  s.

  Using        8 parallel tasks.
  Task        0 on host csky008 reporting.
  Task        1 on host csky008 reporting.
  Task        2 on host csky008 reporting.
  Task        3 on host csky008 reporting.
  Task        4 on host csky008 reporting.
  Task        5 on host csky008 reporting.
  Task        6 on host csky008 reporting.
  Task        7 on host csky008 reporting.

  Performing system and environment tests:
  | Environment variable OMP_NUM_THREADS correctly set to 1.
  | Stacksize not measured: no C compiler
  | Checking for scalapack...
  | Testing pdtran()...
  | All pdtran() tests passed.

  Obtaining array dimensions for all initial allocations:
  
  -----------------------------------------------------------------------
  Parsing control.in (first pass over file, find array dimensions only).
  The contents of control.in will be repeated verbatim below
  unless switched off by setting 'verbatim_writeout .false.' .
  in the first line of control.in .
  -----------------------------------------------------------------------
  
    xc               pbe
    spin             collinear
    default_initial_moment hund
    relativistic     atomic_zora scalar 1e-9
    occupation_type  gaussian 0.001
    charge        0
    vdw_correction_hirshfeld
    KS_method        scalapack_fast
    mixer            pulay
    charge_mix_param  0.4
    spin_mix_param    0.6
    sc_accuracy_rho  1E-4
    sc_accuracy_eev  1E-5
    sc_accuracy_etot 1E-5
    sc_iter_limit    100
    empty_states     10
  ################################################################################
  #
  #  FHI-aims code project
  # Volker Blum, Fritz Haber Institute Berlin, 2009
  #
  #  Suggested "tight" defaults for H atom (to be pasted into control.in file)
  #
  ################################################################################
    species        H
  #     global species definitions
      nucleus             1
      mass                1.00794
  #
      l_hartree           6
  #
      cut_pot             4.0  2.0  1.0
      basis_dep_cutoff    1e-4
  #
      radial_base         24 7.0
      radial_multiplier   2
      angular_grids       specified
        division   0.1930   50
        division   0.3175  110
        division   0.4293  194
        division   0.5066  302
        division   0.5626  434
  #      division   0.5922  590
  #      division   0.6227  974
  #      division   0.6868 1202
  #      outer_grid  770
        outer_grid  434
  ################################################################################
  #
  #  Definition of "minimal" basis
  #
  ################################################################################
  #     valence basis states
      valence      1  s   1.
  #     ion occupancy
      ion_occ      1  s   0.5
  ################################################################################
  #
  #  Suggested additional basis functions. For production calculations,
  #  uncomment them one after another (the most important basis functions are
  #  listed first).
  #
  #  Basis constructed for dimers: 0.5 A, 0.7 A, 1.0 A, 1.5 A, 2.5 A
  #
  ################################################################################
  #  "First tier" - improvements: -1014.90 meV to -62.69 meV
       hydro 2 s 2.1
       hydro 2 p 3.5
  #  "Second tier" - improvements: -12.89 meV to -1.83 meV
       hydro 1 s 0.85
       hydro 2 p 3.7
       hydro 2 s 1.2
       hydro 3 d 7
  #  "Third tier" - improvements: -0.25 meV to -0.12 meV
  #     hydro 4 f 11.2
  #     hydro 3 p 4.8
  #     hydro 4 d 9
  #     hydro 3 s 3.2
  ################################################################################
  #
  # For methods that use the localized form of the "resolution of identity" for
  # the two-electron Coulomb operator (RI_method LVL), particularly Hartree-Fock and
  # hybrid density functional calculations, the highest accuracy can be obtained by
  # uncommenting the line beginning with "for_aux"  below, thus adding an extra g radial
  # function to the construction of the product basis set for the expansion.
  # See Ref. New J. Phys. 17, 093020 (2015) for more information, particularly Figs. 1 and 6.
  #
  ################################################################################
  #
  # for_aux hydro 5 g 6.0
  
  -----------------------------------------------------------------------
  Completed first pass over input file control.in .
  -----------------------------------------------------------------------
  
  
  -----------------------------------------------------------------------
  Parsing geometry.in (first pass over file, find array dimensions only).
  The contents of geometry.in will be repeated verbatim below
  unless switched off by setting 'verbatim_writeout .false.' .
  in the first line of geometry.in .
  -----------------------------------------------------------------------
  
  atom 0 0 0 H
  atom 0 0 0.53 H
  
  -----------------------------------------------------------------------
  Completed first pass over input file geometry.in .
  -----------------------------------------------------------------------
  

  Basic array size parameters:
  | Number of species                 :        1
  | Number of atoms                   :        2
  | Max. basis fn. angular momentum   :        2
  | Max. atomic/ionic basis occupied n:        1
  | Max. number of basis fn. types    :        2
  | Max. radial fns per species/type  :        6
  | Max. logarithmic grid size        :     1131
  | Max. radial integration grid size :       49
  | Max. angular integration grid size:      434
  | Max. angular grid division number :        8
  | Radial grid for Hartree potential :     1131
  | Number of spin channels           :        2

------------------------------------------------------------
          Reading file control.in.
------------------------------------------------------------
  XC: Using PBE gradient-corrected functionals.
  Spin treatment: Spin density functional theory - collinear spins.
  Initial spin moment per atom set according to Hund's rules.
  Scalar relativistic treatment of kinetic energy: on-site free-atom approximation to ZORA.
  Occupation type: Gaussian broadening, width =   0.100000E-02 eV.
  Charge =   0.000000E+00: Neutral system requested explicitly.
  Using non-empirical van der Waals correction (Hirshfeld partitioning):
  Kohn-Sham eigenvalues and eigenfunctions calculated by the ELPA eigensolver library.
  Using pulay charge density mixing.
  Charge density mixing - mixing parameter:     0.4000
  Spin density mixing - mixing parameter:     0.6000
  Convergence accuracy of self-consistent charge density: 0.1000E-03
  Convergence accuracy of sum of eigenvalues: 0.1000E-04
  Convergence accuracy of total energy: 0.1000E-04
  Maximum number of s.-c. iterations  :   100
  Number of empty states per atom:       10
 
  Reading configuration options for species H                   .
  | Found nuclear charge :   1.0000
  | Found atomic mass :    1.00794000000000      amu
  | Found l_max for Hartree potential  :   6
  | Found cutoff potl. onset [A], width [A], scale factor :    4.00000    2.00000    1.00000
  | Threshold for basis-dependent cutoff potential is   0.100000E-03
  | Found data for basic radial integration grid :    24 points, outermost radius =    7.000 A
  | Found multiplier for basic radial grid :   2
  | Found angular grid specification: user-specified.
  | Specified grid contains     6 separate shells.
  | Check grid settings after all constraints further below.
  | Found free-atom valence shell :  1 s   1.000
  | No ionic wave fns used. Skipping ion_occ.
  | Found hydrogenic basis function :  2 s   2.100
  | Found hydrogenic basis function :  2 p   3.500
  | Found hydrogenic basis function :  1 s   0.850
  | Found hydrogenic basis function :  2 p   3.700
  | Found hydrogenic basis function :  2 s   1.200
  | Found hydrogenic basis function :  3 d   7.000
  Species H                   : Missing cutoff potential type.
  Defaulting to exp(1/x)/(1-x)^2 type cutoff potential.
  Species H : No 'logarithmic' tag. Using default grid for free atom:
  | Default logarithmic grid data [bohr] : 0.1000E-03 0.1000E+03 0.1012E+01
  Species H : On-site basis accuracy parameter (for Gram-Schmidt orthonormalisation) not specified.
  Using default value basis_acc =  0.1000000E-03.
  Species H                   : Using default innermost maximum threshold i_radial=  2 for radial functions.
  Species H                   : Default cutoff onset for free atom density etc. : 0.40000000E+01 AA.
  Species H                   : Basic radial grid will be enhanced according to radial_multiplier =   2, to contain    49 grid points.
 
  Finished reading input file 'control.in'. Consistency checks are next.
 
  Target number of points in a grid batch is not set. Defaulting to  100
  Method for grid partitioning is not set. Defaulting to parallel hash+maxmin partitioning.
  Batch size limit is not set. Defaulting to    200
  By default, will store active basis functions for each batch.
  If in need of memory, prune_basis_once .false. can be used to disable this option.
  communication_type for Hartree potential was not specified.
  Defaulting to calc_hartree .
  Pulay mixer: Number of relevant iterations not set.
  Defaulting to    8 iterations.
  Pulay mixer: Number of initial linear mixing iterations not set.
  Defaulting to    0 iterations.
  Work space size for distributed Hartree potential not set.
  Defaulting to   0.200000E+03 MB.
  Algorithm-dependent basis array size parameters:
  | n_max_pulay                         :        8
  Calculation of forces was not defined in control.in. No forces will be calculated.
  Geometry relaxation not requested: no relaxation will be performed.
  No accuracy limit for integral partition fn. given. Defaulting to 0.1000E-14.
  No threshold value for u(r) in integrations given. Defaulting to 0.1000E-05.
  No accuracy for occupation numbers given. Defaulting to 0.1000E-07.
  No threshold value for occupation numbers given. Defaulting to 0.0000E+00.
  No accuracy for fermi level given. Defaulting to 0.1000E-19.
  Maximum # of iterations to find E_F not set. Defaulting to  200.
  Will not use alltoall communication since running on < 1024 CPUs.
  Threshold for basis singularities not set.
  Default threshold for basis singularities: 0.1000E-04
  partition_type (choice of integration weights) for integrals was not specified.
  | Using a version of the partition function of Stratmann and coworkers ('stratmann_smoother').
  | At each grid point, the set of atoms used to build the partition table is smoothly restricted to
  | only those atoms whose free-atom density would be non-zero at that grid point.
  Partitioning for Hartree potential was not defined. Using partition_type for integrals.
  | Adjusted default value of keyword multip_moments_threshold to:       0.10000000E-11
  | This value may affect high angular momentum components of the Hartree potential in periodic systems.
  No q(lm)/r^(l+1) cutoff set for long-range Hartree potential.
  | Using default value of  0.100000E-09 .
  | Verify using the multipole_threshold keyword.
  Defaulting to new monopole extrapolation.
  Density update method: automatic selection selected.
------------------------------------------------------------


------------------------------------------------------------
          Reading geometry description geometry.in.
------------------------------------------------------------
  Input structure read successfully.
  The structure contains        2 atoms,  and a total of          2.000 electrons.

  Input geometry:
  | No unit cell requested.
  | Atomic structure:
  |       Atom                x [A]            y [A]            z [A]
  |    1: Species H              0.000000         0.000000         0.000000
  |    2: Species H              0.000000         0.000000         0.530000
  |

  | The smallest distance between any two atoms is         0.53000000 AA.
  |
  | The first atom of this pair is atom number                      1 .
  | The second atom of this pair is atom number                     2 .

  Initial moments and charges:
  |  Atom   Moment         Charge        Species
  |     1  (Hund's rule)   0.000000E+00   H
  |     2  (Hund's rule)   0.000000E+00   H

  Structure-dependent array size parameters: 
  | Number of distinct atom types in initial rho :        1
  | Maximum number of distinct radial functions  :        7
  | Maximum number of basis functions            :       30
  | Number of Kohn-Sham states (occupied + empty):       11
------------------------------------------------------------

------------------------------------------------------------
          Preparing all fixed parts of the calculation.
------------------------------------------------------------
  Determining machine precision:
    2.225073858507201E-308
  Setting up grids for atomic and cluster calculations.

  Creating wave function, potential, and density for free atoms.

  Species: H

  List of occupied orbitals and eigenvalues:
    n    l              occ      energy [Ha]    energy [eV]
    1    0           1.0000        -0.238386        -6.4868

  Spin-polarized or charged system:
  Charge density initialized according to selected moments and charges.

  Creating spin-polarized density from free atoms.

  Species: H
  Charge:   0.000000
  applying Hund's rules ...

  List of occupied orbitals and eigenvalues:
    n    l      energy [Ha]    energy [eV]    occupation
  Spin-up
    1    0        -0.278991        -7.5917     1.00000000
  Spin-down
    1    0         0.090850         2.4721     0.00000000

  Creating fixed part of basis set: Ionic, confined, hydrogenic.
 
  H                    hydrogenic:
 
  List of hydrogenic basis orbitals: 
    n    l      effective z      eigenvalue [eV]  inner max. [A]     outer max. [A]     outer radius [A]   
    2    0         2.100000       -14.9965           0.193243           1.317208           5.373006
    2    1         3.500000       -41.6672           0.602369           0.602369           4.056063
    1    0         0.850000        -9.8292           0.624871           0.624871           5.373006
    2    1         3.700000       -46.5653           0.573622           0.573622           3.910002
    2    0         1.200000        -4.5995           0.334980           2.228188           5.505995
    3    2         7.000000       -74.0753           0.680699           0.680699           3.769201
 

  Adding cutoff potential to free-atom effective potential.
  Creating atomic-like basis functions for current effective potential.

  Species H                   :

  List of atomic basis orbitals and eigenvalues:
    n    l      energy [Ha]    energy [eV]    outer radius [A]
    1    0        -0.238386        -6.4868       5.373006

  Assembling full basis from fixed parts.
  | Species H :   atomic orbital   1 s accepted.
  | Species H :    hydro orbital   2 s accepted.
  | Species H :    hydro orbital   1 s accepted.
  | Species H :    hydro orbital   2 s accepted.
  | Species H :    hydro orbital   2 p accepted.
  | Species H :    hydro orbital   2 p accepted.
  | Species H :    hydro orbital   3 d accepted.
 
  Basis size parameters after reduction:
  | Total number of radial functions:        7
  | Total number of basis functions :       30
 
  Testing on-site integration grid accuracy.
  |  Species  Function  <phi|h_atom|phi> (log., in eV)  <phi|h_atom|phi> (rad., in eV)
           1        1                 -6.4870767962                 -6.4871688290
           1        2                 13.5032046589                 13.5028982997
           1        3                 32.8195184817                 32.8119941656
           1        4                 33.8513856511                 33.7670005767 ***
           1        5                 28.8544614965                 28.8544615203
           1        6                 59.6326952547                 59.6327656460
           1        7                 60.2719308513                 60.2719305949
 * Note: Onsite integrals marked "***" above are less accurate than
 * onsite_accuracy_threshold =    0.03000 eV. Usually, this is harmless.
 * When in doubt, tighten the "radial" and/or "radial_multiplier" flags to check.

  Preparing densities etc. for the partition functions (integrals / Hartree potential).

  Preparations completed.
  max(cpu_time)          :      0.069 s.
  Wall clock time (cpu1) :      0.069 s.
------------------------------------------------------------

------------------------------------------------------------
          Begin self-consistency loop: Initialization.

          Date     :  20220120, Time     :  153442.272
------------------------------------------------------------

  Initializing index lists of integration centers etc. from given atomic structure:
  | Number of centers in hartree potential         :         2
  | Number of centers in hartree multipole         :         2
  | Number of centers in electron density summation:         2
  | Number of centers in basis integrals           :         2
  | Number of centers in integrals                 :         2
  Using modified Scalapack Eigenvalue solver (ELPA)
  * Using 8 tasks for Scalapack Eigenvalue solver.
  Detailed listing of tasks and assigned k-points:
  (for non-periodic systems, the "k-point" denotes an internal label only)
   Task     0 k-point     1 on csky008
   Task     1 k-point     1 on csky008
   Task     2 k-point     1 on csky008
   Task     3 k-point     1 on csky008
   Task     4 k-point     1 on csky008
   Task     5 k-point     1 on csky008
   Task     6 k-point     1 on csky008
   Task     7 k-point     1 on csky008
  Tasks:     8 split into      4 X      2 BLACS grid
  Calculating blocksize based on n_basis =           30 max_nprow =            4 max_npcol =            2
  Scalapack blocksize set to:            4
  Required Scalapack workspace - INTEGER:            1 REAL:             1
  Partitioning the integration grid into batches with parallel hashing+maxmin method.
  | Number of batches:      447
  | Maximal batch size:     197
  | Minimal batch size:      49
  | Average batch size:      64.653
  | Standard deviation of batch sizes:      17.992

  Integration load balanced across     8 MPI tasks.
  Work distribution over tasks is as follows:
  Task     0 has       3587 integration points.
  Task     1 has       3678 integration points.
  Task     2 has       3587 integration points.
  Task     3 has       3586 integration points.
  Task     4 has       3623 integration points.
  Task     5 has       3644 integration points.
  Task     6 has       3616 integration points.
  Task     7 has       3579 integration points.
  Initializing partition tables, free-atom densities, potentials, etc. across the integration grid (initialize_grid_storage).
  | initialize_grid_storage: Actual outermost partition radius vs. multipole_radius_free
  | (-- VB: in principle, multipole_radius_free should be larger, hence this output)
  | Species        1: outer_partition_radius =              6.000000000000000 AA, multipole_radius_free =              6.071692442739658 AA.
  | Original list of interatomic distances with           2 x          2 entries is created.
  | Net number of integration points:    28900
  | of which are non-zero points    :    26070
  Obtaining max. number of non-zero basis functions in each batch (get_n_compute_maxes).
  | Maximal number of non-zero basis functions:       30 in task     0
  | Maximal number of non-zero basis functions:       30 in task     1
  | Maximal number of non-zero basis functions:       30 in task     2
  | Maximal number of non-zero basis functions:       30 in task     3
  | Maximal number of non-zero basis functions:       30 in task     4
  | Maximal number of non-zero basis functions:       30 in task     5
  | Maximal number of non-zero basis functions:       30 in task     6
  | Maximal number of non-zero basis functions:       30 in task     7
  Selecting the method for density update.
  Loop over occupied states selected for charge density update.
  Integrating Hamiltonian matrix: batch-based integration.
  Time summed over all CPUs for integration: real work        0.074 s, elapsed        0.085 s
  Integrating overlap matrix.
  Time summed over all CPUs for integration: real work        0.019 s, elapsed        0.025 s
  Deallocating overlap matrix.

  Updating Kohn-Sham eigenvalues, eigenvectors, occupation numbers, and Fermi level.
  Solving generalized eigenproblem
  Solving real symmetric generalised eigenvalue problem by standard ScaLAPACK.
  Transforming overlap matrix with ScaLAPACK and checking for singularities.
  : Overlap matrix is nonsingular, using Cholesky decomposition
  | Lowest eigenvalue:  0.843905E-04
  Factoring overlap matrix with Cholesky decomposition
  Using Cholesky factor for transformation
  Using 1-stage real ELPA solver
  Solving real symmetric generalised eigenvalue problem by standard ScaLAPACK.
  Using Cholesky factor for transformation
  Using 1-stage real ELPA solver
  Determining occupation numbers for Kohn-Sham eigenstates.
  | Chemical potential (Fermi level) in eV                 : -.25340230E+00
  | Error in electron count due to remaining E_F inaccuracy: 0.00000000E+00
  | Maximum occupation number of highest empty state:  0.00E+00

  Writing Kohn-Sham eigenvalues.

  Spin-up eigenvalues:

  State    Occupation    Eigenvalue [Ha]    Eigenvalue [eV]
      1       1.00000          -0.710166          -19.32461
      2       1.00000          -0.018535           -0.50435
      3       0.00000          -0.000091           -0.00247
      4       0.00000           0.129969            3.53664
      5       0.00000           0.204133            5.55475
      6       0.00000           0.204133            5.55475
      7       0.00000           0.273076            7.43078
      8       0.00000           0.523479           14.24459
      9       0.00000           0.688354           18.73108
     10       0.00000           0.688354           18.73108
     11       0.00000           0.704223           19.16287

  Spin-down eigenvalues:

  State    Occupation    Eigenvalue [Ha]    Eigenvalue [eV]
      1       0.00000           0.099171            2.69859
      2       0.00000           0.113604            3.09132
      3       0.00000           0.502762           13.68084
      4       0.00000           0.529028           14.39558
      5       0.00000           1.156104           31.45919
      6       0.00000           1.180371           32.11952
      7       0.00000           1.180371           32.11952
      8       0.00000           1.471938           40.05347
      9       0.00000           1.471938           40.05347
     10       0.00000           1.562857           42.52750
     11       0.00000           1.603924           43.64500

  Current spin moment of the entire structure :
  | N = N_up - N_down :    2.00
  | S                 :    1.00
  | J                 :    3.00

  Highest occupied state (VBM) at     -0.50435168 eV
  | Occupation number:      1.00000000
  | Spin channel:        1

  Lowest unoccupied state (CBM) at    -0.00246628 eV
  | Occupation number:      0.00000000
  | Spin channel:        1

  Overall HOMO-LUMO gap:      0.50188540 eV.
  Calculating total energy contributions from superposition of free atom densities.

  Total energy components:
  | Sum of eigenvalues            :          -0.72870090 Ha         -19.82896037 eV
  | XC energy correction          :          -0.70919572 Ha         -19.29819750 eV
  | XC potential correction       :           0.91563649 Ha          24.91573665 eV
  | Free-atom electrostatic energy:          -0.10182739 Ha          -2.77086420 eV
  | Hartree energy correction     :           0.00000000 Ha           0.00000000 eV
  | van der Waals energy corr.    :           0.00000000 Ha           0.00000000 eV
  | Entropy correction            :           0.00000000 Ha           0.00000000 eV
  | ---------------------------
  | Total energy                  :          -0.62408752 Ha         -16.98228543 eV
  | Total energy, T -> 0          :          -0.62408752 Ha         -16.98228543 eV  <-- do not rely on this value for anything but (periodic) metals
  | Electronic free energy        :          -0.62408752 Ha         -16.98228543 eV

  Derived energy quantities:
  | Kinetic energy                :           1.27235845 Ha          34.62263501 eV
  | Electrostatic energy          :          -1.18725025 Ha         -32.30672294 eV
  | Energy correction for multipole
  | error in Hartree potential    :           0.00000000 Ha           0.00000000 eV
  | Sum of eigenvalues per atom                           :          -9.91448019 eV
  | Total energy (T->0) per atom                          :          -8.49114271 eV  <-- do not rely on this value for anything but (periodic) metals
  | Electronic free energy per atom                       :          -8.49114271 eV
  Initialize hartree_potential_storage
  Max. number of atoms included in rho_multipole:            2

  End scf initialization - timings             :  max(cpu_time)    wall_clock(cpu1)
  | Time for scf. initialization               :        0.037 s           0.037 s
  | Boundary condition initialization          :        0.000 s           0.001 s
  | Integration                                :        0.014 s           0.014 s
  | Solution of K.-S. eqns.                    :        0.007 s           0.007 s
  | Grid partitioning                          :        0.006 s           0.006 s
  | Preloading free-atom quantities on grid    :        0.003 s           0.003 s
  | Free-atom superposition energy             :        0.002 s           0.002 s
  | Total energy evaluation                    :        0.000 s           0.000 s
------------------------------------------------------------

------------------------------------------------------------
          Begin self-consistency iteration #    1

  Date     :  20220120, Time     :  153442.310
------------------------------------------------------------
  Evaluating new KS density.
  Integration grid: deviation in total charge (<rho> - N_e) =   3.367747E-08
  | <rho_up-rho_dn> = N_up-N_dn =      2.0000; <|rho_up-rho_dn|> =      2.2040
  Pulay mixing of updated and previous charge densities.

  Evaluating partitioned Hartree potential by multipole expansion.
  | Analytical far-field extrapolation by fixed multipoles:
  | Hartree multipole sum: apparent total charge =  -0.890979E-05
  Summing up the Hartree potential.
  Time summed over all CPUs for potential: real work        0.031 s, elapsed        0.031 s
  | RMS charge density error from multipole expansion :   0.836717E-03

  Integrating Hamiltonian matrix: batch-based integration.
  Time summed over all CPUs for integration: real work        0.061 s, elapsed        0.068 s

  Updating Kohn-Sham eigenvalues, eigenvectors, occupation numbers, and Fermi level.
  Solving generalized eigenproblem
  Solving real symmetric generalised eigenvalue problem by standard ScaLAPACK.
  Using Cholesky factor for transformation
  Using 1-stage real ELPA solver
  Solving real symmetric generalised eigenvalue problem by standard ScaLAPACK.
  Using Cholesky factor for transformation
  Using 1-stage real ELPA solver
  Determining occupation numbers for Kohn-Sham eigenstates.
  | Chemical potential (Fermi level) in eV                 : -.72629802E+01
  | Error in electron count due to remaining E_F inaccuracy: 0.00000000E+00
  | Maximum occupation number of highest empty state:  0.00E+00

  Writing Kohn-Sham eigenvalues.

  Spin-up eigenvalues:

  State    Occupation    Eigenvalue [Ha]    Eigenvalue [eV]
      1       1.00000          -0.566682          -15.42022
      2       0.00000           0.062186            1.69216
      3       0.00000           0.063546            1.72917
      4       0.00000           0.180435            4.90988
      5       0.00000           0.218072            5.93404
      6       0.00000           0.218072            5.93404
      7       0.00000           0.336557            9.15818
      8       0.00000           0.588440           16.01227
      9       0.00000           0.739601           20.12557
     10       0.00000           0.739601           20.12557
     11       0.00000           0.807900           21.98408

  Spin-down eigenvalues:

  State    Occupation    Eigenvalue [Ha]    Eigenvalue [eV]
      1       1.00000          -0.360254           -9.80300
      2       0.00000           0.078876            2.14633
      3       0.00000           0.088077            2.39670
      4       0.00000           0.245959            6.69288
      5       0.00000           0.328118            8.92855
      6       0.00000           0.328118            8.92855
      7       0.00000           0.391001           10.63967
      8       0.00000           0.700808           19.06994
      9       0.00000           0.824029           22.42297
     10       0.00000           0.824029           22.42297
     11       0.00000           0.879281           23.92645

  Current spin moment of the entire structure :
  | N = N_up - N_down :    0.00
  | S                 :    0.00
  | J                 :    1.00

  Highest occupied state (VBM) at     -9.80299838 eV
  | Occupation number:      1.00000000
  | Spin channel:        2

  Lowest unoccupied state (CBM) at     1.69215671 eV
  | Occupation number:      0.00000000
  | Spin channel:        1

  Overall HOMO-LUMO gap:     11.49515508 eV.

  Total energy components:
  | Sum of eigenvalues            :          -0.92693607 Ha         -25.22321371 eV
  | XC energy correction          :          -0.46768348 Ha         -12.72631510 eV
  | XC potential correction       :           0.60068048 Ha          16.34534750 eV
  | Free-atom electrostatic energy:          -0.10182739 Ha          -2.77086420 eV
  | Hartree energy correction     :           0.04712462 Ha           1.28232604 eV
  | van der Waals energy corr.    :           0.00000000 Ha           0.00000000 eV
  | Entropy correction            :           0.00000000 Ha           0.00000000 eV
  | ---------------------------
  | Total energy                  :          -0.84864184 Ha         -23.09271947 eV
  | Total energy, T -> 0          :          -0.84864184 Ha         -23.09271947 eV  <-- do not rely on this value for anything but (periodic) metals
  | Electronic free energy        :          -0.84864184 Ha         -23.09271947 eV

  Derived energy quantities:
  | Kinetic energy                :           0.86959392 Ha          23.66285460 eV
  | Electrostatic energy          :          -1.25055228 Ha         -34.02925896 eV
  | Energy correction for multipole
  | error in Hartree potential    :          -0.00011656 Ha          -0.00317174 eV
  | Sum of eigenvalues per atom                           :         -12.61160685 eV
  | Total energy (T->0) per atom                          :         -11.54635973 eV  <-- do not rely on this value for anything but (periodic) metals
  | Electronic free energy per atom                       :         -11.54635973 eV

  Self-consistency convergence accuracy:
  | Change of charge/spin density : 0.8017E-01 0.8017E-01
  | Change of sum of eigenvalues  : -.5394E+01 eV
  | Change of total energy        : -.6110E+01 eV

  End self-consistency iteration #     1       :  max(cpu_time)    wall_clock(cpu1)
  | Time for this iteration                    :        0.024 s           0.024 s
  | Charge density update                      :        0.006 s           0.005 s
  | Density mixing                             :        0.001 s           0.001 s
  | Hartree multipole update                   :        0.001 s           0.001 s
  | Hartree multipole summation                :        0.005 s           0.005 s
  | Integration                                :        0.009 s           0.009 s
  | Solution of K.-S. eqns.                    :        0.001 s           0.001 s
  | Total energy evaluation                    :        0.000 s           0.001 s
------------------------------------------------------------

------------------------------------------------------------
          Begin self-consistency iteration #    2

  Date     :  20220120, Time     :  153442.339
------------------------------------------------------------
  Evaluating new KS density.
  Integration grid: deviation in total charge (<rho> - N_e) =   2.020648E-08
  | <rho_up-rho_dn> = N_up-N_dn =     -2.0000; <|rho_up-rho_dn|> =      2.0000
  Pulay mixing of updated and previous charge densities.

  Evaluating partitioned Hartree potential by multipole expansion.
  | Analytical far-field extrapolation by fixed multipoles:
  | Hartree multipole sum: apparent total charge =  -0.864113E-05
  Summing up the Hartree potential.
  Time summed over all CPUs for potential: real work        0.030 s, elapsed        0.031 s
  | RMS charge density error from multipole expansion :   0.809704E-03

  Integrating Hamiltonian matrix: batch-based integration.
  Time summed over all CPUs for integration: real work        0.060 s, elapsed        0.065 s

  Updating Kohn-Sham eigenvalues, eigenvectors, occupation numbers, and Fermi level.
  Solving generalized eigenproblem
  Solving real symmetric generalised eigenvalue problem by standard ScaLAPACK.
  Using Cholesky factor for transformation
  Using 1-stage real ELPA solver
  Solving real symmetric generalised eigenvalue problem by standard ScaLAPACK.
  Using Cholesky factor for transformation
  Using 1-stage real ELPA solver
  Determining occupation numbers for Kohn-Sham eigenstates.
  | Chemical potential (Fermi level) in eV                 : -.10460482E+02
  | Error in electron count due to remaining E_F inaccuracy: 0.00000000E+00
  | Maximum occupation number of highest empty state:  0.00E+00

  Current spin moment of the entire structure :
  | N = N_up - N_down :    0.00
  | S                 :    0.00
  | J                 :    1.00

  Highest occupied state (VBM) at    -12.03454207 eV
  | Occupation number:      1.00000000
  | Spin channel:        2

  Lowest unoccupied state (CBM) at     1.35768367 eV
  | Occupation number:      0.00000000
  | Spin channel:        1

  Overall HOMO-LUMO gap:     13.39222574 eV.

  Total energy components:
  | Sum of eigenvalues            :          -1.15112946 Ha         -31.32382633 eV
  | XC energy correction          :          -0.60027238 Ha         -16.33424245 eV
  | XC potential correction       :           0.77455689 Ha          21.07676522 eV
  | Free-atom electrostatic energy:          -0.10182739 Ha          -2.77086420 eV
  | Hartree energy correction     :           0.03821024 Ha           1.03975341 eV
  | van der Waals energy corr.    :           0.00000000 Ha           0.00000000 eV
  | Entropy correction            :           0.00000000 Ha           0.00000000 eV
  | ---------------------------
  | Total energy                  :          -1.04046210 Ha         -28.31241434 eV
  | Total energy, T -> 0          :          -1.04046210 Ha         -28.31241434 eV  <-- do not rely on this value for anything but (periodic) metals
  | Electronic free energy        :          -1.04046210 Ha         -28.31241434 eV

  Derived energy quantities:
  | Kinetic energy                :           0.82224099 Ha          22.37431566 eV
  | Electrostatic energy          :          -1.26243071 Ha         -34.35248754 eV
  | Energy correction for multipole
  | error in Hartree potential    :          -0.00010926 Ha          -0.00297300 eV
  | Sum of eigenvalues per atom                           :         -15.66191316 eV
  | Total energy (T->0) per atom                          :         -14.15620717 eV  <-- do not rely on this value for anything but (periodic) metals
  | Electronic free energy per atom                       :         -14.15620717 eV

  Self-consistency convergence accuracy:
  | Change of charge/spin density : 0.1407E+00 0.3115E+00
  | Change of sum of eigenvalues  : -.6101E+01 eV
  | Change of total energy        : -.5220E+01 eV

  End self-consistency iteration #     2       :  max(cpu_time)    wall_clock(cpu1)
  | Time for this iteration                    :        0.023 s           0.023 s
  | Charge density update                      :        0.006 s           0.006 s
  | Density mixing                             :        0.001 s           0.001 s
  | Hartree multipole update                   :        0.001 s           0.001 s
  | Hartree multipole summation                :        0.004 s           0.004 s
  | Integration                                :        0.008 s           0.008 s
  | Solution of K.-S. eqns.                    :        0.001 s           0.002 s
  | Total energy evaluation                    :        0.000 s           0.001 s
------------------------------------------------------------

------------------------------------------------------------
          Begin self-consistency iteration #    3

  Date     :  20220120, Time     :  153442.363
------------------------------------------------------------
  Evaluating new KS density.
  Integration grid: deviation in total charge (<rho> - N_e) =   1.966095E-08
  | <rho_up-rho_dn> = N_up-N_dn =     -1.9190; <|rho_up-rho_dn|> =      1.9190
  Pulay mixing of updated and previous charge densities.

  Evaluating partitioned Hartree potential by multipole expansion.
  | Analytical far-field extrapolation by fixed multipoles:
  | Hartree multipole sum: apparent total charge =  -0.885676E-05
  Summing up the Hartree potential.
  Time summed over all CPUs for potential: real work        0.030 s, elapsed        0.031 s
  | RMS charge density error from multipole expansion :   0.731403E-03

  Integrating Hamiltonian matrix: batch-based integration.
  Time summed over all CPUs for integration: real work        0.060 s, elapsed        0.064 s

  Updating Kohn-Sham eigenvalues, eigenvectors, occupation numbers, and Fermi level.
  Solving generalized eigenproblem
  Solving real symmetric generalised eigenvalue problem by standard ScaLAPACK.
  Using Cholesky factor for transformation
  Using 1-stage real ELPA solver
  Solving real symmetric generalised eigenvalue problem by standard ScaLAPACK.
  Using Cholesky factor for transformation
  Using 1-stage real ELPA solver
  Determining occupation numbers for Kohn-Sham eigenstates.
  | Chemical potential (Fermi level) in eV                 : -.85887121E+01
  | Error in electron count due to remaining E_F inaccuracy: 0.00000000E+00
  | Maximum occupation number of highest empty state:  0.00E+00

  Current spin moment of the entire structure :
  | N = N_up - N_down :    0.00
  | S                 :    0.00
  | J                 :    1.00

  Highest occupied state (VBM) at    -10.93058251 eV
  | Occupation number:      1.00000000
  | Spin channel:        2

  Lowest unoccupied state (CBM) at     1.33689766 eV
  | Occupation number:      0.00000000
  | Spin channel:        1

  Overall HOMO-LUMO gap:     12.26748017 eV.

  Total energy components:
  | Sum of eigenvalues            :          -1.02366311 Ha         -27.85529045 eV
  | XC energy correction          :          -0.52214136 Ha         -14.20818939 eV
  | XC potential correction       :           0.67191395 Ha          18.28370873 eV
  | Free-atom electrostatic energy:          -0.10182739 Ha          -2.77086420 eV
  | Hartree energy correction     :           0.05294575 Ha           1.44072703 eV
  | van der Waals energy corr.    :           0.00000000 Ha           0.00000000 eV
  | Entropy correction            :           0.00000000 Ha           0.00000000 eV
  | ---------------------------
  | Total energy                  :          -0.92277217 Ha         -25.10990828 eV
  | Total energy, T -> 0          :          -0.92277217 Ha         -25.10990828 eV  <-- do not rely on this value for anything but (periodic) metals
  | Electronic free energy        :          -0.92277217 Ha         -25.10990828 eV

  Derived energy quantities:
  | Kinetic energy                :           0.82496654 Ha          22.44848166 eV
  | Electrostatic energy          :          -1.22559734 Ha         -33.35020055 eV
  | Energy correction for multipole
  | error in Hartree potential    :          -0.00009737 Ha          -0.00264962 eV
  | Sum of eigenvalues per atom                           :         -13.92764522 eV
  | Total energy (T->0) per atom                          :         -12.55495414 eV  <-- do not rely on this value for anything but (periodic) metals
  | Electronic free energy per atom                       :         -12.55495414 eV

  Self-consistency convergence accuracy:
  | Change of charge/spin density : 0.2258E+00 0.2811E+00
  | Change of sum of eigenvalues  : 0.3469E+01 eV
  | Change of total energy        : 0.3203E+01 eV

  End self-consistency iteration #     3       :  max(cpu_time)    wall_clock(cpu1)
  | Time for this iteration                    :        0.023 s           0.023 s
  | Charge density update                      :        0.006 s           0.006 s
  | Density mixing                             :        0.001 s           0.001 s
  | Hartree multipole update                   :        0.001 s           0.001 s
  | Hartree multipole summation                :        0.004 s           0.004 s
  | Integration                                :        0.008 s           0.008 s
  | Solution of K.-S. eqns.                    :        0.001 s           0.002 s
  | Total energy evaluation                    :        0.000 s           0.001 s
------------------------------------------------------------

------------------------------------------------------------
          Begin self-consistency iteration #    4

  Date     :  20220120, Time     :  153442.390
------------------------------------------------------------
  Evaluating new KS density.
  Integration grid: deviation in total charge (<rho> - N_e) =   1.980519E-08
  | <rho_up-rho_dn> = N_up-N_dn =     -1.9356; <|rho_up-rho_dn|> =      1.9356
  Pulay mixing of updated and previous charge densities.

  Evaluating partitioned Hartree potential by multipole expansion.
  | Analytical far-field extrapolation by fixed multipoles:
  | Hartree multipole sum: apparent total charge =  -0.972609E-05
  Summing up the Hartree potential.
  Time summed over all CPUs for potential: real work        0.030 s, elapsed        0.031 s
  | RMS charge density error from multipole expansion :   0.159194E-02

  Integrating Hamiltonian matrix: batch-based integration.
  Time summed over all CPUs for integration: real work        0.061 s, elapsed        0.065 s

  Updating Kohn-Sham eigenvalues, eigenvectors, occupation numbers, and Fermi level.
  Solving generalized eigenproblem
  Solving real symmetric generalised eigenvalue problem by standard ScaLAPACK.
  Using Cholesky factor for transformation
  Using 1-stage real ELPA solver
  Solving real symmetric generalised eigenvalue problem by standard ScaLAPACK.
  Using Cholesky factor for transformation
  Using 1-stage real ELPA solver
  Determining occupation numbers for Kohn-Sham eigenstates.
  | Chemical potential (Fermi level) in eV                 : -.95454145E+01
  | Error in electron count due to remaining E_F inaccuracy: 0.00000000E+00
  | Maximum occupation number of highest empty state:  0.00E+00

  Current spin moment of the entire structure :
  | N = N_up - N_down :    0.00
  | S                 :    0.00
  | J                 :    1.00

  Highest occupied state (VBM) at    -14.44215586 eV
  | Occupation number:      1.00000000
  | Spin channel:        2

  Lowest unoccupied state (CBM) at    -0.09872061 eV
  | Occupation number:      0.00000000
  | Spin channel:        1

  Overall HOMO-LUMO gap:     14.34343525 eV.

  Total energy components:
  | Sum of eigenvalues            :          -1.17204293 Ha         -31.89291091 eV
  | XC energy correction          :          -0.51192285 Ha         -13.93012963 eV
  | XC potential correction       :           0.65881621 Ha          17.92730107 eV
  | Free-atom electrostatic energy:          -0.10182739 Ha          -2.77086420 eV
  | Hartree energy correction     :           0.15038522 Ha           4.09219017 eV
  | van der Waals energy corr.    :           0.00000000 Ha           0.00000000 eV
  | Entropy correction            :           0.00000000 Ha           0.00000000 eV
  | ---------------------------
  | Total energy                  :          -0.97659175 Ha         -26.57441350 eV
  | Total energy, T -> 0          :          -0.97659175 Ha         -26.57441350 eV  <-- do not rely on this value for anything but (periodic) metals
  | Electronic free energy        :          -0.97659175 Ha         -26.57441350 eV

  Derived energy quantities:
  | Kinetic energy                :           0.23252583 Ha           6.32734989 eV
  | Electrostatic energy          :          -0.69719473 Ha         -18.97163375 eV
  | Energy correction for multipole
  | error in Hartree potential    :           0.00021447 Ha           0.00583606 eV
  | Sum of eigenvalues per atom                           :         -15.94645545 eV
  | Total energy (T->0) per atom                          :         -13.28720675 eV  <-- do not rely on this value for anything but (periodic) metals
  | Electronic free energy per atom                       :         -13.28720675 eV

  Self-consistency convergence accuracy:
  | Change of charge/spin density : 0.1737E+00 0.2933E+00
  | Change of sum of eigenvalues  : -.4038E+01 eV
  | Change of total energy        : -.1465E+01 eV

  End self-consistency iteration #     4       :  max(cpu_time)    wall_clock(cpu1)
  | Time for this iteration                    :        0.023 s           0.022 s
  | Charge density update                      :        0.006 s           0.005 s
  | Density mixing                             :        0.001 s           0.001 s
  | Hartree multipole update                   :        0.001 s           0.002 s
  | Hartree multipole summation                :        0.004 s           0.004 s
  | Integration                                :        0.008 s           0.008 s
  | Solution of K.-S. eqns.                    :        0.001 s           0.002 s
  | Total energy evaluation                    :        0.000 s           0.000 s
------------------------------------------------------------

------------------------------------------------------------
          Begin self-consistency iteration #    5

  Date     :  20220120, Time     :  153442.414
------------------------------------------------------------
  Evaluating new KS density.
  Integration grid: deviation in total charge (<rho> - N_e) =   1.610822E-08
  | <rho_up-rho_dn> = N_up-N_dn =     -1.4431; <|rho_up-rho_dn|> =      1.4431
  Pulay mixing of updated and previous charge densities.

  Evaluating partitioned Hartree potential by multipole expansion.
  | Analytical far-field extrapolation by fixed multipoles:
  | Hartree multipole sum: apparent total charge =  -0.137906E-04
  Summing up the Hartree potential.
  Time summed over all CPUs for potential: real work        0.030 s, elapsed        0.030 s
  | RMS charge density error from multipole expansion :   0.758480E-02

  Integrating Hamiltonian matrix: batch-based integration.
  Time summed over all CPUs for integration: real work        0.064 s, elapsed        0.068 s

  Updating Kohn-Sham eigenvalues, eigenvectors, occupation numbers, and Fermi level.
  Solving generalized eigenproblem
  Solving real symmetric generalised eigenvalue problem by standard ScaLAPACK.
  Using Cholesky factor for transformation
  Using 1-stage real ELPA solver
  Solving real symmetric generalised eigenvalue problem by standard ScaLAPACK.
  Using Cholesky factor for transformation
  Using 1-stage real ELPA solver
  Determining occupation numbers for Kohn-Sham eigenstates.
  | Chemical potential (Fermi level) in eV                 : -.22877990E+02
  | Error in electron count due to remaining E_F inaccuracy: 0.00000000E+00
  | Maximum occupation number of highest empty state:  0.00E+00

  Current spin moment of the entire structure :
  | N = N_up - N_down :    0.00
  | S                 :    0.00
  | J                 :    1.00

  Highest occupied state (VBM) at    -24.83538583 eV
  | Occupation number:      1.00000000
  | Spin channel:        2

  Lowest unoccupied state (CBM) at    -2.45547156 eV
  | Occupation number:      0.00000000
  | Spin channel:        1

  Overall HOMO-LUMO gap:     22.37991426 eV.

  Total energy components:
  | Sum of eigenvalues            :          -1.86907617 Ha         -50.86015023 eV
  | XC energy correction          :          -0.74122983 Ha         -20.16988993 eV
  | XC potential correction       :           0.95285016 Ha          25.92837216 eV
  | Free-atom electrostatic energy:          -0.10182739 Ha          -2.77086420 eV
  | Hartree energy correction     :           0.10194888 Ha           2.77417026 eV
  | van der Waals energy corr.    :           0.00000000 Ha           0.00000000 eV
  | Entropy correction            :           0.00000000 Ha           0.00000000 eV
  | ---------------------------
  | Total energy                  :          -1.65733434 Ha         -45.09836194 eV
  | Total energy, T -> 0          :          -1.65733434 Ha         -45.09836194 eV  <-- do not rely on this value for anything but (periodic) metals
  | Electronic free energy        :          -1.65733434 Ha         -45.09836194 eV

  Derived energy quantities:
  | Kinetic energy                :          -2.28774368 Ha         -62.25267296 eV
  | Electrostatic energy          :           1.37163917 Ha          37.32420095 eV
  | Energy correction for multipole
  | error in Hartree potential    :           0.00111028 Ha           0.03021236 eV
  | Sum of eigenvalues per atom                           :         -25.43007512 eV
  | Total energy (T->0) per atom                          :         -22.54918097 eV  <-- do not rely on this value for anything but (periodic) metals
  | Electronic free energy per atom                       :         -22.54918097 eV

  Self-consistency convergence accuracy:
  | Change of charge/spin density : 0.3604E+00 0.1977E+00
  | Change of sum of eigenvalues  : -.1897E+02 eV
  | Change of total energy        : -.1852E+02 eV

  End self-consistency iteration #     5       :  max(cpu_time)    wall_clock(cpu1)
  | Time for this iteration                    :        0.023 s           0.023 s
  | Charge density update                      :        0.006 s           0.006 s
  | Density mixing                             :        0.001 s           0.001 s
  | Hartree multipole update                   :        0.001 s           0.001 s
  | Hartree multipole summation                :        0.004 s           0.004 s
  | Integration                                :        0.009 s           0.009 s
  | Solution of K.-S. eqns.                    :        0.001 s           0.001 s
  | Total energy evaluation                    :        0.000 s           0.000 s
------------------------------------------------------------

------------------------------------------------------------
          Begin self-consistency iteration #    6

  Date     :  20220120, Time     :  153442.440
------------------------------------------------------------
  Evaluating new KS density.
  Integration grid: deviation in total charge (<rho> - N_e) =   8.135715E-09
  | <rho_up-rho_dn> = N_up-N_dn =     -0.5299; <|rho_up-rho_dn|> =      1.1641
  Pulay mixing of updated and previous charge densities.

  Evaluating partitioned Hartree potential by multipole expansion.
  | Analytical far-field extrapolation by fixed multipoles:
  | Hartree multipole sum: apparent total charge =  -0.220412E-04
  Summing up the Hartree potential.
  Time summed over all CPUs for potential: real work        0.030 s, elapsed        0.031 s
  | RMS charge density error from multipole expansion :   0.154293E-01

  Integrating Hamiltonian matrix: batch-based integration.
  Time summed over all CPUs for integration: real work        0.064 s, elapsed        0.068 s

  Updating Kohn-Sham eigenvalues, eigenvectors, occupation numbers, and Fermi level.
  Solving generalized eigenproblem
  Solving real symmetric generalised eigenvalue problem by standard ScaLAPACK.
  Using Cholesky factor for transformation
  Using 1-stage real ELPA solver
  Solving real symmetric generalised eigenvalue problem by standard ScaLAPACK.
  Using Cholesky factor for transformation
  Using 1-stage real ELPA solver
  Determining occupation numbers for Kohn-Sham eigenstates.
  | Chemical potential (Fermi level) in eV                 : -.42131039E+02
  | Error in electron count due to remaining E_F inaccuracy: 0.00000000E+00
  | Maximum occupation number of highest empty state:  0.00E+00

  Current spin moment of the entire structure :
  | N = N_up - N_down :    0.00
  | S                 :    0.00
  | J                 :    1.00

  Highest occupied state (VBM) at    -45.70182029 eV
  | Occupation number:      1.00000000
  | Spin channel:        2

  Lowest unoccupied state (CBM) at    -8.59242692 eV
  | Occupation number:      0.00000000
  | Spin channel:        1

  Overall HOMO-LUMO gap:     37.10939337 eV.

  Total energy components:
  | Sum of eigenvalues            :          -3.38883986 Ha         -92.21502433 eV
  | XC energy correction          :          -1.14195503 Ha         -31.07417752 eV
  | XC potential correction       :           1.47125023 Ha          40.03475576 eV
  | Free-atom electrostatic energy:          -0.10182739 Ha          -2.77086420 eV
  | Hartree energy correction     :          -0.91982751 Ha         -25.02977998 eV
  | van der Waals energy corr.    :           0.00000000 Ha           0.00000000 eV
  | Entropy correction            :           0.00000000 Ha           0.00000000 eV
  | ---------------------------
  | Total energy                  :          -4.08119955 Ha        -111.05509025 eV
  | Total energy, T -> 0          :          -4.08119955 Ha        -111.05509025 eV  <-- do not rely on this value for anything but (periodic) metals
  | Electronic free energy        :          -4.08119955 Ha        -111.05509025 eV

  Derived energy quantities:
  | Kinetic energy                :          -8.24721441 Ha        -224.41812227 eV
  | Electrostatic energy          :           5.30796989 Ha         144.43720953 eV
  | Energy correction for multipole
  | error in Hartree potential    :           0.00217823 Ha           0.05927271 eV
  | Sum of eigenvalues per atom                           :         -46.10751216 eV
  | Total energy (T->0) per atom                          :         -55.52754513 eV  <-- do not rely on this value for anything but (periodic) metals
  | Electronic free energy per atom                       :         -55.52754513 eV

  Self-consistency convergence accuracy:
  | Change of charge/spin density : 0.1114E+01 0.3174E+00
  | Change of sum of eigenvalues  : -.4135E+02 eV
  | Change of total energy        : -.6596E+02 eV

  End self-consistency iteration #     6       :  max(cpu_time)    wall_clock(cpu1)
  | Time for this iteration                    :        0.024 s           0.023 s
  | Charge density update                      :        0.006 s           0.005 s
  | Density mixing                             :        0.001 s           0.001 s
  | Hartree multipole update                   :        0.001 s           0.001 s
  | Hartree multipole summation                :        0.004 s           0.004 s
  | Integration                                :        0.009 s           0.009 s
  | Solution of K.-S. eqns.                    :        0.001 s           0.001 s
  | Total energy evaluation                    :        0.000 s           0.000 s
------------------------------------------------------------

------------------------------------------------------------
          Begin self-consistency iteration #    7

  Date     :  20220120, Time     :  153442.468
------------------------------------------------------------
  Evaluating new KS density.
  Integration grid: deviation in total charge (<rho> - N_e) =   4.615890E-09
  | <rho_up-rho_dn> = N_up-N_dn =     -0.2382; <|rho_up-rho_dn|> =      1.8915
  Pulay mixing of updated and previous charge densities.

  Evaluating partitioned Hartree potential by multipole expansion.
  | Analytical far-field extrapolation by fixed multipoles:
  | Hartree multipole sum: apparent total charge =  -0.184373E-04
  Summing up the Hartree potential.
  Time summed over all CPUs for potential: real work        0.030 s, elapsed        0.031 s
  | RMS charge density error from multipole expansion :   0.123806E-01

  Integrating Hamiltonian matrix: batch-based integration.
  Time summed over all CPUs for integration: real work        0.064 s, elapsed        0.068 s

  Updating Kohn-Sham eigenvalues, eigenvectors, occupation numbers, and Fermi level.
  Solving generalized eigenproblem
  Solving real symmetric generalised eigenvalue problem by standard ScaLAPACK.
  Using Cholesky factor for transformation
  Using 1-stage real ELPA solver
  Solving real symmetric generalised eigenvalue problem by standard ScaLAPACK.
  Using Cholesky factor for transformation
  Using 1-stage real ELPA solver
  Determining occupation numbers for Kohn-Sham eigenstates.
  | Chemical potential (Fermi level) in eV                 : -.33732907E+02
  | Error in electron count due to remaining E_F inaccuracy: 0.00000000E+00
  | Maximum occupation number of highest empty state:  0.00E+00

  Current spin moment of the entire structure :
  | N = N_up - N_down :    0.00
  | S                 :    0.00
  | J                 :    1.00

  Highest occupied state (VBM) at    -36.60489141 eV
  | Occupation number:      1.00000000
  | Spin channel:        2

  Lowest unoccupied state (CBM) at    -5.59282413 eV
  | Occupation number:      0.00000000
  | Spin channel:        1

  Overall HOMO-LUMO gap:     31.01206728 eV.

  Total energy components:
  | Sum of eigenvalues            :          -2.72579178 Ha         -74.17256822 eV
  | XC energy correction          :          -0.97971646 Ha         -26.65944141 eV
  | XC potential correction       :           1.26117315 Ha          34.31826743 eV
  | Free-atom electrostatic energy:          -0.10182739 Ha          -2.77086420 eV
  | Hartree energy correction     :          -0.37013221 Ha         -10.07181002 eV
  | van der Waals energy corr.    :           0.00000000 Ha           0.00000000 eV
  | Entropy correction            :           0.00000000 Ha           0.00000000 eV
  | ---------------------------
  | Total energy                  :          -2.91629470 Ha         -79.35641641 eV
  | Total energy, T -> 0          :          -2.91629470 Ha         -79.35641641 eV  <-- do not rely on this value for anything but (periodic) metals
  | Electronic free energy        :          -2.91629470 Ha         -79.35641641 eV

  Derived energy quantities:
  | Kinetic energy                :          -5.51908878 Ha        -150.18204685 eV
  | Electrostatic energy          :           3.58251054 Ha          97.48507185 eV
  | Energy correction for multipole
  | error in Hartree potential    :           0.00178242 Ha           0.04850216 eV
  | Sum of eigenvalues per atom                           :         -37.08628411 eV
  | Total energy (T->0) per atom                          :         -39.67820821 eV  <-- do not rely on this value for anything but (periodic) metals
  | Electronic free energy per atom                       :         -39.67820821 eV

  Self-consistency convergence accuracy:
  | Change of charge/spin density : 0.2159E+01 0.6908E+00
  | Change of sum of eigenvalues  : 0.1804E+02 eV
  | Change of total energy        : 0.3170E+02 eV

  End self-consistency iteration #     7       :  max(cpu_time)    wall_clock(cpu1)
  | Time for this iteration                    :        0.028 s           0.023 s
  | Charge density update                      :        0.010 s           0.005 s
  | Density mixing                             :        0.001 s           0.001 s
  | Hartree multipole update                   :        0.001 s           0.002 s
  | Hartree multipole summation                :        0.004 s           0.004 s
  | Integration                                :        0.009 s           0.009 s
  | Solution of K.-S. eqns.                    :        0.001 s           0.001 s
  | Total energy evaluation                    :        0.000 s           0.000 s
------------------------------------------------------------

------------------------------------------------------------
          Begin self-consistency iteration #    8

  Date     :  20220120, Time     :  153442.494
------------------------------------------------------------
  Evaluating new KS density.
  Integration grid: deviation in total charge (<rho> - N_e) =   5.288561E-09
  | <rho_up-rho_dn> = N_up-N_dn =     -0.3110; <|rho_up-rho_dn|> =      1.5654
  Pulay mixing of updated and previous charge densities.

  Evaluating partitioned Hartree potential by multipole expansion.
  | Analytical far-field extrapolation by fixed multipoles:
  | Hartree multipole sum: apparent total charge =  -0.137306E-04
  Summing up the Hartree potential.
  Time summed over all CPUs for potential: real work        0.030 s, elapsed        0.030 s
  | RMS charge density error from multipole expansion :   0.106091E-01

  Integrating Hamiltonian matrix: batch-based integration.
  Time summed over all CPUs for integration: real work        0.064 s, elapsed        0.068 s

  Updating Kohn-Sham eigenvalues, eigenvectors, occupation numbers, and Fermi level.
  Solving generalized eigenproblem
  Solving real symmetric generalised eigenvalue problem by standard ScaLAPACK.
  Using Cholesky factor for transformation
  Using 1-stage real ELPA solver
  Solving real symmetric generalised eigenvalue problem by standard ScaLAPACK.
  Using Cholesky factor for transformation
  Using 1-stage real ELPA solver
  Determining occupation numbers for Kohn-Sham eigenstates.
  | Chemical potential (Fermi level) in eV                 : -.26875362E+02
  | Error in electron count due to remaining E_F inaccuracy: 0.00000000E+00
  | Maximum occupation number of highest empty state:  0.00E+00

  Current spin moment of the entire structure :
  | N = N_up - N_down :    0.00
  | S                 :    0.00
  | J                 :    1.00

  Highest occupied state (VBM) at    -29.48035018 eV
  | Occupation number:      1.00000000
  | Spin channel:        2

  Lowest unoccupied state (CBM) at    -3.11109754 eV
  | Occupation number:      0.00000000
  | Spin channel:        1

  Overall HOMO-LUMO gap:     26.36925265 eV.

  Total energy components:
  | Sum of eigenvalues            :          -2.19666633 Ha         -59.77433223 eV
  | XC energy correction          :          -0.88987872 Ha         -24.21483198 eV
  | XC potential correction       :           1.14468500 Ha          31.14846373 eV
  | Free-atom electrostatic energy:          -0.10182739 Ha          -2.77086420 eV
  | Hartree energy correction     :          -0.12940016 Ha          -3.52115739 eV
  | van der Waals energy corr.    :           0.00000000 Ha           0.00000000 eV
  | Entropy correction            :           0.00000000 Ha           0.00000000 eV
  | ---------------------------
  | Total energy                  :          -2.17308759 Ha         -59.13272207 eV
  | Total energy, T -> 0          :          -2.17308759 Ha         -59.13272207 eV  <-- do not rely on this value for anything but (periodic) metals
  | Electronic free energy        :          -2.17308759 Ha         -59.13272207 eV

  Derived energy quantities:
  | Kinetic energy                :          -3.64548210 Ha         -99.19861511 eV
  | Electrostatic energy          :           2.36227322 Ha          64.28072502 eV
  | Energy correction for multipole
  | error in Hartree potential    :           0.00168882 Ha           0.04595501 eV
  | Sum of eigenvalues per atom                           :         -29.88716612 eV
  | Total energy (T->0) per atom                          :         -29.56636103 eV  <-- do not rely on this value for anything but (periodic) metals
  | Electronic free energy per atom                       :         -29.56636103 eV

  Self-consistency convergence accuracy:
  | Change of charge/spin density : 0.1753E+01 0.5460E+00
  | Change of sum of eigenvalues  : 0.1440E+02 eV
  | Change of total energy        : 0.2022E+02 eV

  End self-consistency iteration #     8       :  max(cpu_time)    wall_clock(cpu1)
  | Time for this iteration                    :        0.025 s           0.024 s
  | Charge density update                      :        0.006 s           0.005 s
  | Density mixing                             :        0.002 s           0.002 s
  | Hartree multipole update                   :        0.001 s           0.002 s
  | Hartree multipole summation                :        0.004 s           0.004 s
  | Integration                                :        0.009 s           0.009 s
  | Solution of K.-S. eqns.                    :        0.001 s           0.001 s
  | Total energy evaluation                    :        0.000 s           0.001 s
------------------------------------------------------------

------------------------------------------------------------
          Begin self-consistency iteration #    9

  Date     :  20220120, Time     :  153442.520
------------------------------------------------------------
  Evaluating new KS density.
  Integration grid: deviation in total charge (<rho> - N_e) =   1.676879E-09
  | <rho_up-rho_dn> = N_up-N_dn =     -0.0606; <|rho_up-rho_dn|> =      1.3033
  Pulay mixing of updated and previous charge densities.

  Evaluating partitioned Hartree potential by multipole expansion.
  | Analytical far-field extrapolation by fixed multipoles:
  | Hartree multipole sum: apparent total charge =   0.838867E-05
  Summing up the Hartree potential.
  Time summed over all CPUs for potential: real work        0.030 s, elapsed        0.030 s
  | RMS charge density error from multipole expansion :   0.624706E-02

  Integrating Hamiltonian matrix: batch-based integration.
  Time summed over all CPUs for integration: real work        0.056 s, elapsed        0.060 s

  Updating Kohn-Sham eigenvalues, eigenvectors, occupation numbers, and Fermi level.
  Solving generalized eigenproblem
  Solving real symmetric generalised eigenvalue problem by standard ScaLAPACK.
  Using Cholesky factor for transformation
  Using 1-stage real ELPA solver
  Solving real symmetric generalised eigenvalue problem by standard ScaLAPACK.
  Using Cholesky factor for transformation
  Using 1-stage real ELPA solver
  Determining occupation numbers for Kohn-Sham eigenstates.
  | Chemical potential (Fermi level) in eV                 : 0.14592292E+01
  | Error in electron count due to remaining E_F inaccuracy: 0.00000000E+00
  | Maximum occupation number of highest empty state:  0.00E+00

  Current spin moment of the entire structure :
  | N = N_up - N_down :    0.00
  | S                 :    0.00
  | J                 :    1.00

  Highest occupied state (VBM) at     -0.47237788 eV
  | Occupation number:      1.00000000
  | Spin channel:        2

  Lowest unoccupied state (CBM) at     2.75287636 eV
  | Occupation number:      0.00000000
  | Spin channel:        2

  Overall HOMO-LUMO gap:      3.22525424 eV.

  Total energy components:
  | Sum of eigenvalues            :          -0.04069721 Ha          -1.10742747 eV
  | XC energy correction          :          -1.38753439 Ha         -37.75673172 eV
  | XC potential correction       :           1.78942939 Ha          48.69285119 eV
  | Free-atom electrostatic energy:          -0.10182739 Ha          -2.77086420 eV
  | Hartree energy correction     :          -1.64491729 Ha         -44.76047674 eV
  | van der Waals energy corr.    :           0.00000000 Ha           0.00000000 eV
  | Entropy correction            :           0.00000000 Ha           0.00000000 eV
  | ---------------------------
  | Total energy                  :          -1.38554688 Ha         -37.70264893 eV
  | Total energy, T -> 0          :          -1.38554688 Ha         -37.70264893 eV  <-- do not rely on this value for anything but (periodic) metals
  | Electronic free energy        :          -1.38554688 Ha         -37.70264893 eV

  Derived energy quantities:
  | Kinetic energy                :           2.62453537 Ha          71.41724102 eV
  | Electrostatic energy          :          -2.62254786 Ha         -71.36315824 eV
  | Energy correction for multipole
  | error in Hartree potential    :          -0.00019375 Ha          -0.00527226 eV
  | Sum of eigenvalues per atom                           :          -0.55371373 eV
  | Total energy (T->0) per atom                          :         -18.85132447 eV  <-- do not rely on this value for anything but (periodic) metals
  | Electronic free energy per atom                       :         -18.85132447 eV

  Self-consistency convergence accuracy:
  | Change of charge/spin density : 0.1449E+01 0.4960E+00
  | Change of sum of eigenvalues  : 0.5867E+02 eV
  | Change of total energy        : 0.2143E+02 eV

  End self-consistency iteration #     9       :  max(cpu_time)    wall_clock(cpu1)
  | Time for this iteration                    :        0.023 s           0.023 s
  | Charge density update                      :        0.006 s           0.006 s
  | Density mixing                             :        0.002 s           0.001 s
  | Hartree multipole update                   :        0.001 s           0.002 s
  | Hartree multipole summation                :        0.004 s           0.004 s
  | Integration                                :        0.008 s           0.007 s
  | Solution of K.-S. eqns.                    :        0.001 s           0.002 s
  | Total energy evaluation                    :        0.000 s           0.001 s
------------------------------------------------------------

------------------------------------------------------------
          Begin self-consistency iteration #   10

  Date     :  20220120, Time     :  153442.544
------------------------------------------------------------
  Evaluating new KS density.
  Integration grid: deviation in total charge (<rho> - N_e) =   2.672929E-11
  | <rho_up-rho_dn> = N_up-N_dn =      0.0405; <|rho_up-rho_dn|> =      0.6508
  Pulay mixing of updated and previous charge densities.

  Evaluating partitioned Hartree potential by multipole expansion.
  | Analytical far-field extrapolation by fixed multipoles:
  | Hartree multipole sum: apparent total charge =   0.765885E-05
  Summing up the Hartree potential.
  Time summed over all CPUs for potential: real work        0.030 s, elapsed        0.030 s
  | RMS charge density error from multipole expansion :   0.581632E-02

  Integrating Hamiltonian matrix: batch-based integration.
  Time summed over all CPUs for integration: real work        0.057 s, elapsed        0.061 s

  Updating Kohn-Sham eigenvalues, eigenvectors, occupation numbers, and Fermi level.
  Solving generalized eigenproblem
  Solving real symmetric generalised eigenvalue problem by standard ScaLAPACK.
  Using Cholesky factor for transformation
  Using 1-stage real ELPA solver
  Solving real symmetric generalised eigenvalue problem by standard ScaLAPACK.
  Using Cholesky factor for transformation
  Using 1-stage real ELPA solver
  Determining occupation numbers for Kohn-Sham eigenstates.
  | Chemical potential (Fermi level) in eV                 : 0.73877132E+00
  | Error in electron count due to remaining E_F inaccuracy: 0.00000000E+00
  | Maximum occupation number of highest empty state:  0.00E+00

  Current spin moment of the entire structure :
  | N = N_up - N_down :    0.00
  | S                 :    0.00
  | J                 :    1.00

  Highest occupied state (VBM) at     -1.22910702 eV
  | Occupation number:      1.00000000
  | Spin channel:        2

  Lowest unoccupied state (CBM) at     2.71029645 eV
  | Occupation number:      0.00000000
  | Spin channel:        2

  Overall HOMO-LUMO gap:      3.93940347 eV.

  Total energy components:
  | Sum of eigenvalues            :          -0.09566406 Ha          -2.60315165 eV
  | XC energy correction          :          -1.32758554 Ha         -36.12544068 eV
  | XC potential correction       :           1.71153701 Ha          46.57329166 eV
  | Free-atom electrostatic energy:          -0.10182739 Ha          -2.77086420 eV
  | Hartree energy correction     :          -1.51066171 Ha         -41.10719664 eV
  | van der Waals energy corr.    :           0.00000000 Ha           0.00000000 eV
  | Entropy correction            :           0.00000000 Ha           0.00000000 eV
  | ---------------------------
  | Total energy                  :          -1.32420170 Ha         -36.03336150 eV
  | Total energy, T -> 0          :          -1.32420170 Ha         -36.03336150 eV  <-- do not rely on this value for anything but (periodic) metals
  | Electronic free energy        :          -1.32420170 Ha         -36.03336150 eV

  Derived energy quantities:
  | Kinetic energy                :           2.56815156 Ha          69.88295969 eV
  | Electrostatic energy          :          -2.56476772 Ha         -69.79088052 eV
  | Energy correction for multipole
  | error in Hartree potential    :          -0.00014849 Ha          -0.00404062 eV
  | Sum of eigenvalues per atom                           :          -1.30157583 eV
  | Total energy (T->0) per atom                          :         -18.01668075 eV  <-- do not rely on this value for anything but (periodic) metals
  | Electronic free energy per atom                       :         -18.01668075 eV

  Self-consistency convergence accuracy:
  | Change of charge/spin density : 0.7332E+00 0.2161E+00
  | Change of sum of eigenvalues  : -.1496E+01 eV
  | Change of total energy        : 0.1669E+01 eV

  End self-consistency iteration #    10       :  max(cpu_time)    wall_clock(cpu1)
  | Time for this iteration                    :        0.023 s           0.022 s
  | Charge density update                      :        0.006 s           0.005 s
  | Density mixing                             :        0.002 s           0.002 s
  | Hartree multipole update                   :        0.001 s           0.001 s
  | Hartree multipole summation                :        0.004 s           0.004 s
  | Integration                                :        0.008 s           0.008 s
  | Solution of K.-S. eqns.                    :        0.001 s           0.001 s
  | Total energy evaluation                    :        0.000 s           0.001 s
------------------------------------------------------------

------------------------------------------------------------
          Begin self-consistency iteration #   11

  Date     :  20220120, Time     :  153442.569
------------------------------------------------------------
  Evaluating new KS density.
  Integration grid: deviation in total charge (<rho> - N_e) =   3.976459E-10
  | <rho_up-rho_dn> = N_up-N_dn =      0.0015; <|rho_up-rho_dn|> =      0.5632
  Pulay mixing of updated and previous charge densities.

  Evaluating partitioned Hartree potential by multipole expansion.
  | Analytical far-field extrapolation by fixed multipoles:
  | Hartree multipole sum: apparent total charge =   0.857610E-05
  Summing up the Hartree potential.
  Time summed over all CPUs for potential: real work        0.030 s, elapsed        0.030 s
  | RMS charge density error from multipole expansion :   0.601879E-02

  Integrating Hamiltonian matrix: batch-based integration.
  Time summed over all CPUs for integration: real work        0.056 s, elapsed        0.059 s

  Updating Kohn-Sham eigenvalues, eigenvectors, occupation numbers, and Fermi level.
  Solving generalized eigenproblem
  Solving real symmetric generalised eigenvalue problem by standard ScaLAPACK.
  Using Cholesky factor for transformation
  Using 1-stage real ELPA solver
  Solving real symmetric generalised eigenvalue problem by standard ScaLAPACK.
  Using Cholesky factor for transformation
  Using 1-stage real ELPA solver
  Determining occupation numbers for Kohn-Sham eigenstates.
  | Chemical potential (Fermi level) in eV                 : 0.12194780E+01
  | Error in electron count due to remaining E_F inaccuracy: 0.00000000E+00
  | Maximum occupation number of highest empty state:  0.00E+00

  Current spin moment of the entire structure :
  | N = N_up - N_down :    0.00
  | S                 :    0.00
  | J                 :    1.00

  Highest occupied state (VBM) at     -0.71756585 eV
  | Occupation number:      1.00000000
  | Spin channel:        2

  Lowest unoccupied state (CBM) at     2.75079204 eV
  | Occupation number:      0.00000000
  | Spin channel:        2

  Overall HOMO-LUMO gap:      3.46835790 eV.

  Total energy components:
  | Sum of eigenvalues            :          -0.05872215 Ha          -1.59791101 eV
  | XC energy correction          :          -1.36571973 Ha         -37.16312481 eV
  | XC potential correction       :           1.76110009 Ha          47.92197165 eV
  | Free-atom electrostatic energy:          -0.10182739 Ha          -2.77086420 eV
  | Hartree energy correction     :          -1.59849838 Ha         -43.49735400 eV
  | van der Waals energy corr.    :           0.00000000 Ha           0.00000000 eV
  | Entropy correction            :           0.00000000 Ha           0.00000000 eV
  | ---------------------------
  | Total energy                  :          -1.36366756 Ha         -37.10728236 eV
  | Total energy, T -> 0          :          -1.36366756 Ha         -37.10728236 eV  <-- do not rely on this value for anything but (periodic) metals
  | Electronic free energy        :          -1.36366756 Ha         -37.10728236 eV

  Derived energy quantities:
  | Kinetic energy                :           2.59306243 Ha          70.56081879 eV
  | Electrostatic energy          :          -2.59101026 Ha         -70.50497634 eV
  | Energy correction for multipole
  | error in Hartree potential    :          -0.00014503 Ha          -0.00394649 eV
  | Sum of eigenvalues per atom                           :          -0.79895550 eV
  | Total energy (T->0) per atom                          :         -18.55364118 eV  <-- do not rely on this value for anything but (periodic) metals
  | Electronic free energy per atom                       :         -18.55364118 eV

[...]
  | Change of sum of eigenvalues  : -.1826E-03 eV
  | Change of total energy        : -.2719E-06 eV

  End self-consistency iteration #    27       :  max(cpu_time)    wall_clock(cpu1)
  | Time for this iteration                    :        0.024 s           0.024 s
  | Charge density update                      :        0.006 s           0.005 s
  | Density mixing                             :        0.002 s           0.002 s
  | Hartree multipole update                   :        0.001 s           0.001 s
  | Hartree multipole summation                :        0.004 s           0.004 s
  | Integration                                :        0.009 s           0.008 s
  | Solution of K.-S. eqns.                    :        0.001 s           0.002 s
  | Total energy evaluation                    :        0.000 s           0.000 s
------------------------------------------------------------

------------------------------------------------------------
          Begin self-consistency iteration #   28

  Date     :  20220120, Time     :  153443.019
------------------------------------------------------------
  Evaluating new KS density.
  Integration grid: deviation in total charge (<rho> - N_e) =  -6.978862E-13
  | <rho_up-rho_dn> = N_up-N_dn =      0.0000; <|rho_up-rho_dn|> =      0.0000
  Pulay mixing of updated and previous charge densities.

  Evaluating partitioned Hartree potential by multipole expansion.
  | Analytical far-field extrapolation by fixed multipoles:
  | Hartree multipole sum: apparent total charge =   0.177705E-05
  Summing up the Hartree potential.
  Time summed over all CPUs for potential: real work        0.030 s, elapsed        0.030 s
  | RMS charge density error from multipole expansion :   0.192805E-02

  Integrating Hamiltonian matrix: batch-based integration.
  Time summed over all CPUs for integration: real work        0.065 s, elapsed        0.070 s

  Updating Kohn-Sham eigenvalues, eigenvectors, occupation numbers, and Fermi level.
  Solving generalized eigenproblem
  Solving real symmetric generalised eigenvalue problem by standard ScaLAPACK.
  Using Cholesky factor for transformation
  Using 1-stage real ELPA solver
  Solving real symmetric generalised eigenvalue problem by standard ScaLAPACK.
  Using Cholesky factor for transformation
  Using 1-stage real ELPA solver
  Determining occupation numbers for Kohn-Sham eigenstates.
  | Chemical potential (Fermi level) in eV                 : -.98878546E+01
  | Error in electron count due to remaining E_F inaccuracy: 0.00000000E+00
  | Maximum occupation number of highest empty state:  0.00E+00

  Current spin moment of the entire structure :
  | N = N_up - N_down :    0.00
  | S                 :    0.00
  | J                 :    1.00

  Highest occupied state (VBM) at    -11.57893084 eV
  | Occupation number:      1.00000000
  | Spin channel:        1

  Lowest unoccupied state (CBM) at     1.18909144 eV
  | Occupation number:      0.00000000
  | Spin channel:        2

  Overall HOMO-LUMO gap:     12.76802228 eV.

  Total energy components:
  | Sum of eigenvalues            :          -0.85103591 Ha         -23.15786542 eV
  | XC energy correction          :          -0.76976189 Ha         -20.94628663 eV
  | XC potential correction       :           0.98791172 Ha          26.88244574 eV
  | Free-atom electrostatic energy:          -0.10182739 Ha          -2.77086420 eV
  | Hartree energy correction     :          -0.37982066 Ha         -10.33544611 eV
  | van der Waals energy corr.    :           0.00000000 Ha           0.00000000 eV
  | Entropy correction            :           0.00000000 Ha           0.00000000 eV
  | ---------------------------
  | Total energy                  :          -1.11453413 Ha         -30.32801662 eV
  | Total energy, T -> 0          :          -1.11453413 Ha         -30.32801662 eV  <-- do not rely on this value for anything but (periodic) metals
  | Electronic free energy        :          -1.11453413 Ha         -30.32801662 eV

  Derived energy quantities:
  | Kinetic energy                :           1.40421001 Ha          38.21049842 eV
  | Electrostatic energy          :          -1.74898225 Ha         -47.59222841 eV
  | Energy correction for multipole
  | error in Hartree potential    :           0.00001275 Ha           0.00034696 eV
  | Sum of eigenvalues per atom                           :         -11.57893271 eV
  | Total energy (T->0) per atom                          :         -15.16400831 eV  <-- do not rely on this value for anything but (periodic) metals
  | Electronic free energy per atom                       :         -15.16400831 eV

  Self-consistency convergence accuracy:
  | Change of charge/spin density : 0.3531E-05 0.3316E-05
  | Change of sum of eigenvalues  : -.4744E-04 eV
  | Change of total energy        : -.2510E-07 eV

  End self-consistency iteration #    28       :  max(cpu_time)    wall_clock(cpu1)
  | Time for this iteration                    :        0.025 s           0.024 s
  | Charge density update                      :        0.007 s           0.006 s
  | Density mixing                             :        0.002 s           0.001 s
  | Hartree multipole update                   :        0.001 s           0.002 s
  | Hartree multipole summation                :        0.004 s           0.004 s
  | Integration                                :        0.009 s           0.009 s
  | Solution of K.-S. eqns.                    :        0.001 s           0.001 s
  | Total energy evaluation                    :        0.000 s           0.000 s
------------------------------------------------------------

------------------------------------------------------------
          Begin self-consistency iteration #   29

  Date     :  20220120, Time     :  153443.045
------------------------------------------------------------
  Evaluating new KS density.
  Integration grid: deviation in total charge (<rho> - N_e) =  -2.222666E-13
  | <rho_up-rho_dn> = N_up-N_dn =      0.0000; <|rho_up-rho_dn|> =      0.0000
  Pulay mixing of updated and previous charge densities.

  Evaluating partitioned Hartree potential by multipole expansion.
  | Analytical far-field extrapolation by fixed multipoles:
  | Hartree multipole sum: apparent total charge =   0.177716E-05
  Summing up the Hartree potential.
  Time summed over all CPUs for potential: real work        0.030 s, elapsed        0.030 s
  | RMS charge density error from multipole expansion :   0.192807E-02

  Integrating Hamiltonian matrix: batch-based integration.
  Time summed over all CPUs for integration: real work        0.066 s, elapsed        0.070 s

  Updating Kohn-Sham eigenvalues, eigenvectors, occupation numbers, and Fermi level.
  Solving generalized eigenproblem
  Solving real symmetric generalised eigenvalue problem by standard ScaLAPACK.
  Using Cholesky factor for transformation
  Using 1-stage real ELPA solver
  Solving real symmetric generalised eigenvalue problem by standard ScaLAPACK.
  Using Cholesky factor for transformation
  Using 1-stage real ELPA solver
  Determining occupation numbers for Kohn-Sham eigenstates.
  | Chemical potential (Fermi level) in eV                 : -.98892453E+01
  | Error in electron count due to remaining E_F inaccuracy: 0.00000000E+00
  | Maximum occupation number of highest empty state:  0.00E+00

  Current spin moment of the entire structure :
  | N = N_up - N_down :    0.00
  | S                 :    0.00
  | J                 :    1.00

  Highest occupied state (VBM) at    -11.57893606 eV
  | Occupation number:      1.00000000
  | Spin channel:        1

  Lowest unoccupied state (CBM) at     1.18878920 eV
  | Occupation number:      0.00000000
  | Spin channel:        2

  Overall HOMO-LUMO gap:     12.76772526 eV.

  Total energy components:
  | Sum of eigenvalues            :          -0.85103621 Ha         -23.15787359 eV
  | XC energy correction          :          -0.76976184 Ha         -20.94628527 eV
  | XC potential correction       :           0.98791165 Ha          26.88244368 eV
  | Free-atom electrostatic energy:          -0.10182739 Ha          -2.77086420 eV
  | Hartree energy correction     :          -0.37982034 Ha         -10.33543725 eV
  | van der Waals energy corr.    :           0.00000000 Ha           0.00000000 eV
  | Entropy correction            :           0.00000000 Ha           0.00000000 eV
  | ---------------------------
  | Total energy                  :          -1.11453413 Ha         -30.32801662 eV
  | Total energy, T -> 0          :          -1.11453413 Ha         -30.32801662 eV  <-- do not rely on this value for anything but (periodic) metals
  | Electronic free energy        :          -1.11453413 Ha         -30.32801662 eV

  Derived energy quantities:
  | Kinetic energy                :           1.40421014 Ha          38.21050216 eV
  | Electrostatic energy          :          -1.74898243 Ha         -47.59223351 eV
  | Energy correction for multipole
  | error in Hartree potential    :           0.00001275 Ha           0.00034695 eV
  | Sum of eigenvalues per atom                           :         -11.57893679 eV
  | Total energy (T->0) per atom                          :         -15.16400831 eV  <-- do not rely on this value for anything but (periodic) metals
  | Electronic free energy per atom                       :         -15.16400831 eV

  Self-consistency convergence accuracy:
  | Change of charge/spin density : 0.9250E-06 0.6773E-06
  | Change of sum of eigenvalues  : -.8165E-05 eV
  | Change of total energy        : -.7656E-09 eV

  Writing Kohn-Sham eigenvalues.

  Spin-up eigenvalues:

  State    Occupation    Eigenvalue [Ha]    Eigenvalue [eV]
      1       1.00000          -0.425518          -11.57894
      2       0.00000           0.043691            1.18890
      3       0.00000           0.045812            1.24660
      4       0.00000           0.203281            5.53157
      5       0.00000           0.338485            9.21064
      6       0.00000           0.338485            9.21064
      7       0.00000           0.353016            9.60605
      8       0.00000           0.656593           17.86681
      9       0.00000           0.792248           21.55816
     10       0.00000           0.792248           21.55816
     11       0.00000           0.815422           22.18876

  Spin-down eigenvalues:

  State    Occupation    Eigenvalue [Ha]    Eigenvalue [eV]
      1       1.00000          -0.425518          -11.57894
      2       0.00000           0.043687            1.18879
      3       0.00000           0.045810            1.24655
      4       0.00000           0.203272            5.53132
      5       0.00000           0.338485            9.21064
      6       0.00000           0.338485            9.21064
      7       0.00000           0.353013            9.60598
      8       0.00000           0.656589           17.86669
      9       0.00000           0.792248           21.55816
     10       0.00000           0.792248           21.55816
     11       0.00000           0.815422           22.18876

  Current spin moment of the entire structure :
  | N = N_up - N_down :    0.00
  | S                 :    0.00
  | J                 :    1.00

  Highest occupied state (VBM) at    -11.57893606 eV
  | Occupation number:      1.00000000
  | Spin channel:        1

  Lowest unoccupied state (CBM) at     1.18878920 eV
  | Occupation number:      0.00000000
  | Spin channel:        2

  Overall HOMO-LUMO gap:     12.76772526 eV.

  Self-consistency cycle converged.

  End self-consistency iteration #    29       :  max(cpu_time)    wall_clock(cpu1)
  | Time for this iteration                    :        0.024 s           0.024 s
  | Charge density update                      :        0.006 s           0.005 s
  | Density mixing                             :        0.002 s           0.002 s
  | Hartree multipole update                   :        0.001 s           0.001 s
  | Hartree multipole summation                :        0.004 s           0.004 s
  | Integration                                :        0.009 s           0.009 s
  | Solution of K.-S. eqns.                    :        0.001 s           0.001 s
  | Total energy evaluation                    :        0.000 s           0.000 s
------------------------------------------------------------
  Obtaining max. number of non-zero basis functions in each batch .
  Evaluating KS electron density on previously omitted grid points.
  Evaluating non-empirical van der Waals correction (Tkatchenko/Scheffler 2009).
  Performing Hirshfeld analysis of fragment charges and moments.
  ----------------------------------------------------------------------
  | Atom     1: H
  |   Hirshfeld charge        :     -0.00000048
  |   Free atom volume        :     10.31539447
  |   Hirshfeld volume        :      4.25083673
  |   Hirshfeld spin moment   :     -0.00000040
  |   Hirshfeld dipole vector :      0.00000000      -0.00000000      -0.06757722
  |   Hirshfeld dipole moment :      0.06757722
  |   Hirshfeld second moments:      0.15308684       0.00000000      -0.00000000
  |                                  0.00000000       0.15308684      -0.00000000
  |                                 -0.00000000      -0.00000000       0.14903462
  ----------------------------------------------------------------------
  | Atom     2: H
  |   Hirshfeld charge        :     -0.00000048
  |   Free atom volume        :     10.31539447
  |   Hirshfeld volume        :      4.25083673
  |   Hirshfeld spin moment   :     -0.00000040
  |   Hirshfeld dipole vector :     -0.00000000      -0.00000000       0.06757722
  |   Hirshfeld dipole moment :      0.06757722
  |   Hirshfeld second moments:      0.15308684      -0.00000000      -0.00000000
  |                                 -0.00000000       0.15308684      -0.00000000
  |                                 -0.00000000      -0.00000000       0.14903462
  ----------------------------------------------------------------------


  Total energy components:
  | Sum of eigenvalues            :          -0.85103621 Ha         -23.15787359 eV
  | XC energy correction          :          -0.76976184 Ha         -20.94628527 eV
  | XC potential correction       :           0.98791165 Ha          26.88244368 eV
  | Free-atom electrostatic energy:          -0.10182739 Ha          -2.77086420 eV
  | Hartree energy correction     :          -0.37982034 Ha         -10.33543725 eV
  | van der Waals energy corr.    :          -0.00000023 Ha          -0.00000622 eV
  | Entropy correction            :           0.00000000 Ha           0.00000000 eV
  | ---------------------------
  | Total energy                  :          -1.11453435 Ha         -30.32802284 eV
  | Total energy, T -> 0          :          -1.11453435 Ha         -30.32802284 eV  <-- do not rely on this value for anything but (periodic) metals
  | Electronic free energy        :          -1.11453435 Ha         -30.32802284 eV

  Derived energy quantities:
  | Kinetic energy                :           1.40421014 Ha          38.21050216 eV
  | Electrostatic energy          :          -1.74898243 Ha         -47.59223351 eV
  | Energy correction for multipole
  | error in Hartree potential    :           0.00001275 Ha           0.00034695 eV
  | Sum of eigenvalues per atom                           :         -11.57893679 eV
  | Total energy (T->0) per atom                          :         -15.16401142 eV  <-- do not rely on this value for anything but (periodic) metals
  | Electronic free energy per atom                       :         -15.16401142 eV
  Timings for VdW correction (Tkatchenko-Scheffler 2009 or later):
  | CPU time:        0.002 s, Wall clock time:        0.002 s.

  Energy and forces in a compact form:
  | Total energy uncorrected      :         -0.303280228351742E+02 eV
  | Total energy corrected        :         -0.303280228351742E+02 eV  <-- do not rely on this value for anything but (periodic) metals
  | Electronic free energy        :         -0.303280228351742E+02 eV

  ------------------------------------ 
  Start decomposition of the XC Energy 
  ------------------------------------ 
  Hartree-Fock part   :          0.000000000 Ha              0.000000000 eV
  ------------------------------------ 
  X Energy            :         -0.726067267 Ha            -19.757295578 eV
  C Energy GGA        :         -0.043694568 Ha             -1.188989689 eV
  Total XC Energy     :         -0.769761835 Ha            -20.946285267 eV
  LDA X and C from self-consistent density 
  X Energy LDA        :         -0.635752727 Ha            -17.299711914 eV
  C Energy LDA        :         -0.098990236 Ha             -2.693661386 eV
  ------------------------------------ 
  End decomposition of the XC Energy 
  ------------------------------------ 

------------------------------------------------------------------------------
  Final output of selected total energy values:

  The following output summarizes some interesting total energy values
  at the end of a run (AFTER all relaxation, molecular dynamics, etc.).

  | Total energy of the DFT / Hartree-Fock s.c.f. calculation      :            -30.328022835 eV
  | Final zero-broadening corrected energy (caution - metals only) :            -30.328022835 eV
  | For reference only, the value of 1 Hartree used in FHI-aims is :             27.211384500 eV

  Before relying on these values, please be sure to understand exactly which
  total energy value is referred to by a given number. Different objects may
  all carry the same name 'total energy'. Definitions:

  Total energy of the DFT / Hartree-Fock s.c.f. calculation:
  | Note that this energy does not include ANY quantities calculated after the
  | s.c.f. cycle, in particular not ANY RPA, MP2, etc. many-body perturbation terms.

  Final zero-broadening corrected energy:
  | For metallic systems only, a broadening of the occupation numbers at the Fermi
  | level can be extrapolated back to zero broadening by an electron-gas inspired
  | formula. For all systems that are not real metals, this value can be
  | meaningless and should be avoided.

------------------------------------------------------------------------------

------------------------------------------------------------
          Leaving FHI-aims.
          Date     :  20220120, Time     :  153443.076

          Computational steps:
          | Number of self-consistency cycles          :           29

          Detailed time accounting                     :  max(cpu_time)    wall_clock(cpu1)
          | Total time                                 :        0.867 s           0.945 s
          | Preparation time                           :        0.069 s           0.069 s
          | Grid partitioning                          :        0.006 s           0.006 s
          | Preloading free-atom quantities on grid    :        0.003 s           0.003 s
          | Free-atom superposition energy             :        0.002 s           0.002 s
          | Total time for integrations                :        0.265 s           0.264 s
          | Total time for solution of K.-S. equations :        0.042 s           0.045 s
          | Total time for density update              :        0.185 s           0.158 s
          | Total time for mixing                      :        0.044 s           0.041 s
          | Total time for Hartree multipole update    :        0.035 s           0.040 s
          | Total time for Hartree multipole sum       :        0.120 s           0.120 s
          | Total time for total energy evaluation     :        0.004 s           0.013 s
          | Total time for scaled ZORA corrections     :        0.000 s           0.000 s
          | Total time for vdW correction              :        0.002 s           0.002 s

          Have a nice day.
------------------------------------------------------------
