  MPI-parallelism will be employed.
------------------------------------------------------------
          Invoking FHI-aims ...
          Version 052014
          Git rev. (modified): 096c982 Merge branch master of fhiaims:/pub/localo[...]
          Compiled on 2016/12/16 at 15:22:01 on host login02.hpc.iitd.ac.in.

          When using FHI-aims, please cite the following reference:

          Volker Blum, Ralf Gehrke, Felix Hanke, Paula Havu,
          Ville Havu, Xinguo Ren, Karsten Reuter, and Matthias Scheffler,
          'Ab Initio Molecular Simulations with Numeric Atom-Centered Orbitals: FHI-aims',
          Computer Physics Communications 180, 2175-2196 (2009)

          For any questions about FHI-aims, please visit the aimsclub website
          with its forums and wiki. Contributions to both the forums and the
          wiki are warmly encouraged - they are for you, and everyone is welcome there.

------------------------------------------------------------

  Date     :  20220120, Time     :  153640.433
  Time zero on CPU 1             :   0.134550000000000E-01  s.
  Internal wall clock time zero  :           411925000.433  s.

  Using        8 parallel tasks.
  Task        0 on host csky010 reporting.
  Task        1 on host csky010 reporting.
  Task        2 on host csky010 reporting.
  Task        3 on host csky010 reporting.
  Task        4 on host csky010 reporting.
  Task        5 on host csky010 reporting.
  Task        6 on host csky010 reporting.
  Task        7 on host csky010 reporting.

  Performing system and environment tests:
  | Environment variable OMP_NUM_THREADS correctly set to 1.
  | Stacksize not measured: no C compiler
  | Checking for scalapack...
  | Testing pdtran()...
  | All pdtran() tests passed.

  Obtaining array dimensions for all initial allocations:
  
  -----------------------------------------------------------------------
  Parsing control.in (first pass over file, find array dimensions only).
  The contents of control.in will be repeated verbatim below
  unless switched off by setting 'verbatim_writeout .false.' .
  in the first line of control.in .
  -----------------------------------------------------------------------
  
    xc               pbe
    spin             collinear
    default_initial_moment hund
    relativistic     atomic_zora scalar 1e-9
    occupation_type  gaussian 0.001
    charge        0
    vdw_correction_hirshfeld
    KS_method        scalapack_fast
    mixer            pulay
    charge_mix_param  0.4
    spin_mix_param    0.6
    sc_accuracy_rho  1E-4
    sc_accuracy_eev  1E-5
    sc_accuracy_etot 1E-5
    sc_iter_limit    100
    empty_states     10
  ################################################################################
  #
  #  FHI-aims code project
  # Volker Blum, Fritz Haber Institute Berlin, 2009
  #
  #  Suggested "tight" defaults for H atom (to be pasted into control.in file)
  #
  ################################################################################
    species        H
  #     global species definitions
      nucleus             1
      mass                1.00794
  #
      l_hartree           6
  #
      cut_pot             4.0  2.0  1.0
      basis_dep_cutoff    1e-4
  #
      radial_base         24 7.0
      radial_multiplier   2
      angular_grids       specified
        division   0.1930   50
        division   0.3175  110
        division   0.4293  194
        division   0.5066  302
        division   0.5626  434
  #      division   0.5922  590
  #      division   0.6227  974
  #      division   0.6868 1202
  #      outer_grid  770
        outer_grid  434
  ################################################################################
  #
  #  Definition of "minimal" basis
  #
  ################################################################################
  #     valence basis states
      valence      1  s   1.
  #     ion occupancy
      ion_occ      1  s   0.5
  ################################################################################
  #
  #  Suggested additional basis functions. For production calculations,
  #  uncomment them one after another (the most important basis functions are
  #  listed first).
  #
  #  Basis constructed for dimers: 0.5 A, 0.7 A, 1.0 A, 1.5 A, 2.5 A
  #
  ################################################################################
  #  "First tier" - improvements: -1014.90 meV to -62.69 meV
       hydro 2 s 2.1
       hydro 2 p 3.5
  #  "Second tier" - improvements: -12.89 meV to -1.83 meV
       hydro 1 s 0.85
       hydro 2 p 3.7
       hydro 2 s 1.2
       hydro 3 d 7
  #  "Third tier" - improvements: -0.25 meV to -0.12 meV
  #     hydro 4 f 11.2
  #     hydro 3 p 4.8
  #     hydro 4 d 9
  #     hydro 3 s 3.2
  ################################################################################
  #
  # For methods that use the localized form of the "resolution of identity" for
  # the two-electron Coulomb operator (RI_method LVL), particularly Hartree-Fock and
  # hybrid density functional calculations, the highest accuracy can be obtained by
  # uncommenting the line beginning with "for_aux"  below, thus adding an extra g radial
  # function to the construction of the product basis set for the expansion.
  # See Ref. New J. Phys. 17, 093020 (2015) for more information, particularly Figs. 1 and 6.
  #
  ################################################################################
  #
  # for_aux hydro 5 g 6.0
  
  -----------------------------------------------------------------------
  Completed first pass over input file control.in .
  -----------------------------------------------------------------------
  
  
  -----------------------------------------------------------------------
  Parsing geometry.in (first pass over file, find array dimensions only).
  The contents of geometry.in will be repeated verbatim below
  unless switched off by setting 'verbatim_writeout .false.' .
  in the first line of geometry.in .
  -----------------------------------------------------------------------
  
  atom 0 0 0 H
  atom 0 0 0.34 H
  
  -----------------------------------------------------------------------
  Completed first pass over input file geometry.in .
  -----------------------------------------------------------------------
  

  Basic array size parameters:
  | Number of species                 :        1
  | Number of atoms                   :        2
  | Max. basis fn. angular momentum   :        2
  | Max. atomic/ionic basis occupied n:        1
  | Max. number of basis fn. types    :        2
  | Max. radial fns per species/type  :        6
  | Max. logarithmic grid size        :     1131
  | Max. radial integration grid size :       49
  | Max. angular integration grid size:      434
  | Max. angular grid division number :        8
  | Radial grid for Hartree potential :     1131
  | Number of spin channels           :        2

------------------------------------------------------------
          Reading file control.in.
------------------------------------------------------------
  XC: Using PBE gradient-corrected functionals.
  Spin treatment: Spin density functional theory - collinear spins.
  Initial spin moment per atom set according to Hund's rules.
  Scalar relativistic treatment of kinetic energy: on-site free-atom approximation to ZORA.
  Occupation type: Gaussian broadening, width =   0.100000E-02 eV.
  Charge =   0.000000E+00: Neutral system requested explicitly.
  Using non-empirical van der Waals correction (Hirshfeld partitioning):
  Kohn-Sham eigenvalues and eigenfunctions calculated by the ELPA eigensolver library.
  Using pulay charge density mixing.
  Charge density mixing - mixing parameter:     0.4000
  Spin density mixing - mixing parameter:     0.6000
  Convergence accuracy of self-consistent charge density: 0.1000E-03
  Convergence accuracy of sum of eigenvalues: 0.1000E-04
  Convergence accuracy of total energy: 0.1000E-04
  Maximum number of s.-c. iterations  :   100
  Number of empty states per atom:       10
 
  Reading configuration options for species H                   .
  | Found nuclear charge :   1.0000
  | Found atomic mass :    1.00794000000000      amu
  | Found l_max for Hartree potential  :   6
  | Found cutoff potl. onset [A], width [A], scale factor :    4.00000    2.00000    1.00000
  | Threshold for basis-dependent cutoff potential is   0.100000E-03
  | Found data for basic radial integration grid :    24 points, outermost radius =    7.000 A
  | Found multiplier for basic radial grid :   2
  | Found angular grid specification: user-specified.
  | Specified grid contains     6 separate shells.
  | Check grid settings after all constraints further below.
  | Found free-atom valence shell :  1 s   1.000
  | No ionic wave fns used. Skipping ion_occ.
  | Found hydrogenic basis function :  2 s   2.100
  | Found hydrogenic basis function :  2 p   3.500
  | Found hydrogenic basis function :  1 s   0.850
  | Found hydrogenic basis function :  2 p   3.700
  | Found hydrogenic basis function :  2 s   1.200
  | Found hydrogenic basis function :  3 d   7.000
  Species H                   : Missing cutoff potential type.
  Defaulting to exp(1/x)/(1-x)^2 type cutoff potential.
  Species H : No 'logarithmic' tag. Using default grid for free atom:
  | Default logarithmic grid data [bohr] : 0.1000E-03 0.1000E+03 0.1012E+01
  Species H : On-site basis accuracy parameter (for Gram-Schmidt orthonormalisation) not specified.
  Using default value basis_acc =  0.1000000E-03.
  Species H                   : Using default innermost maximum threshold i_radial=  2 for radial functions.
  Species H                   : Default cutoff onset for free atom density etc. : 0.40000000E+01 AA.
  Species H                   : Basic radial grid will be enhanced according to radial_multiplier =   2, to contain    49 grid points.
 
  Finished reading input file 'control.in'. Consistency checks are next.
 
  Target number of points in a grid batch is not set. Defaulting to  100
  Method for grid partitioning is not set. Defaulting to parallel hash+maxmin partitioning.
  Batch size limit is not set. Defaulting to    200
  By default, will store active basis functions for each batch.
  If in need of memory, prune_basis_once .false. can be used to disable this option.
  communication_type for Hartree potential was not specified.
  Defaulting to calc_hartree .
  Pulay mixer: Number of relevant iterations not set.
  Defaulting to    8 iterations.
  Pulay mixer: Number of initial linear mixing iterations not set.
  Defaulting to    0 iterations.
  Work space size for distributed Hartree potential not set.
  Defaulting to   0.200000E+03 MB.
  Algorithm-dependent basis array size parameters:
  | n_max_pulay                         :        8
  Calculation of forces was not defined in control.in. No forces will be calculated.
  Geometry relaxation not requested: no relaxation will be performed.
  No accuracy limit for integral partition fn. given. Defaulting to 0.1000E-14.
  No threshold value for u(r) in integrations given. Defaulting to 0.1000E-05.
  No accuracy for occupation numbers given. Defaulting to 0.1000E-07.
  No threshold value for occupation numbers given. Defaulting to 0.0000E+00.
  No accuracy for fermi level given. Defaulting to 0.1000E-19.
  Maximum # of iterations to find E_F not set. Defaulting to  200.
  Will not use alltoall communication since running on < 1024 CPUs.
  Threshold for basis singularities not set.
  Default threshold for basis singularities: 0.1000E-04
  partition_type (choice of integration weights) for integrals was not specified.
  | Using a version of the partition function of Stratmann and coworkers ('stratmann_smoother').
  | At each grid point, the set of atoms used to build the partition table is smoothly restricted to
  | only those atoms whose free-atom density would be non-zero at that grid point.
  Partitioning for Hartree potential was not defined. Using partition_type for integrals.
  | Adjusted default value of keyword multip_moments_threshold to:       0.10000000E-11
  | This value may affect high angular momentum components of the Hartree potential in periodic systems.
  No q(lm)/r^(l+1) cutoff set for long-range Hartree potential.
  | Using default value of  0.100000E-09 .
  | Verify using the multipole_threshold keyword.
  Defaulting to new monopole extrapolation.
  Density update method: automatic selection selected.
------------------------------------------------------------


------------------------------------------------------------
          Reading geometry description geometry.in.
------------------------------------------------------------
  Input structure read successfully.
  The structure contains        2 atoms,  and a total of          2.000 electrons.

  Input geometry:
  | No unit cell requested.
  | Atomic structure:
  |       Atom                x [A]            y [A]            z [A]
  |    1: Species H              0.000000         0.000000         0.000000
  |    2: Species H              0.000000         0.000000         0.340000
  |

  | The smallest distance between any two atoms is         0.34000000 AA.
  |
  | The first atom of this pair is atom number                      1 .
  | The second atom of this pair is atom number                     2 .

  Initial moments and charges:
  |  Atom   Moment         Charge        Species
  |     1  (Hund's rule)   0.000000E+00   H
  |     2  (Hund's rule)   0.000000E+00   H

  Structure-dependent array size parameters: 
  | Number of distinct atom types in initial rho :        1
  | Maximum number of distinct radial functions  :        7
  | Maximum number of basis functions            :       30
  | Number of Kohn-Sham states (occupied + empty):       11
------------------------------------------------------------

------------------------------------------------------------
          Preparing all fixed parts of the calculation.
------------------------------------------------------------
  Determining machine precision:
    2.225073858507201E-308
  Setting up grids for atomic and cluster calculations.

  Creating wave function, potential, and density for free atoms.

  Species: H

  List of occupied orbitals and eigenvalues:
    n    l              occ      energy [Ha]    energy [eV]
    1    0           1.0000        -0.238386        -6.4868

  Spin-polarized or charged system:
  Charge density initialized according to selected moments and charges.

  Creating spin-polarized density from free atoms.

  Species: H
  Charge:   0.000000
  applying Hund's rules ...

  List of occupied orbitals and eigenvalues:
    n    l      energy [Ha]    energy [eV]    occupation
  Spin-up
    1    0        -0.278991        -7.5917     1.00000000
  Spin-down
    1    0         0.090850         2.4721     0.00000000

  Creating fixed part of basis set: Ionic, confined, hydrogenic.
 
  H                    hydrogenic:
 
  List of hydrogenic basis orbitals: 
    n    l      effective z      eigenvalue [eV]  inner max. [A]     outer max. [A]     outer radius [A]   
    2    0         2.100000       -14.9965           0.193243           1.317208           5.373006
    2    1         3.500000       -41.6672           0.602369           0.602369           4.056063
    1    0         0.850000        -9.8292           0.624871           0.624871           5.373006
    2    1         3.700000       -46.5653           0.573622           0.573622           3.910002
    2    0         1.200000        -4.5995           0.334980           2.228188           5.505995
    3    2         7.000000       -74.0753           0.680699           0.680699           3.769201
 

  Adding cutoff potential to free-atom effective potential.
  Creating atomic-like basis functions for current effective potential.

  Species H                   :

  List of atomic basis orbitals and eigenvalues:
    n    l      energy [Ha]    energy [eV]    outer radius [A]
    1    0        -0.238386        -6.4868       5.373006

  Assembling full basis from fixed parts.
  | Species H :   atomic orbital   1 s accepted.
  | Species H :    hydro orbital   2 s accepted.
  | Species H :    hydro orbital   1 s accepted.
  | Species H :    hydro orbital   2 s accepted.
  | Species H :    hydro orbital   2 p accepted.
  | Species H :    hydro orbital   2 p accepted.
  | Species H :    hydro orbital   3 d accepted.
 
  Basis size parameters after reduction:
  | Total number of radial functions:        7
  | Total number of basis functions :       30
 
  Testing on-site integration grid accuracy.
  |  Species  Function  <phi|h_atom|phi> (log., in eV)  <phi|h_atom|phi> (rad., in eV)
           1        1                 -6.4870767962                 -6.4871688290
           1        2                 13.5032046589                 13.5028982997
           1        3                 32.8195184817                 32.8119941656
           1        4                 33.8513856511                 33.7670005767 ***
           1        5                 28.8544614965                 28.8544615203
           1        6                 59.6326952547                 59.6327656460
           1        7                 60.2719308513                 60.2719305949
 * Note: Onsite integrals marked "***" above are less accurate than
 * onsite_accuracy_threshold =    0.03000 eV. Usually, this is harmless.
 * When in doubt, tighten the "radial" and/or "radial_multiplier" flags to check.

  Preparing densities etc. for the partition functions (integrals / Hartree potential).

  Preparations completed.
  max(cpu_time)          :      0.082 s.
  Wall clock time (cpu1) :      0.082 s.
------------------------------------------------------------

------------------------------------------------------------
          Begin self-consistency loop: Initialization.

          Date     :  20220120, Time     :  153640.592
------------------------------------------------------------

  Initializing index lists of integration centers etc. from given atomic structure:
  | Number of centers in hartree potential         :         2
  | Number of centers in hartree multipole         :         2
  | Number of centers in electron density summation:         2
  | Number of centers in basis integrals           :         2
  | Number of centers in integrals                 :         2
  Using modified Scalapack Eigenvalue solver (ELPA)
  * Using 8 tasks for Scalapack Eigenvalue solver.
  Detailed listing of tasks and assigned k-points:
  (for non-periodic systems, the "k-point" denotes an internal label only)
   Task     0 k-point     1 on csky010
   Task     1 k-point     1 on csky010
   Task     2 k-point     1 on csky010
   Task     3 k-point     1 on csky010
   Task     4 k-point     1 on csky010
   Task     5 k-point     1 on csky010
   Task     6 k-point     1 on csky010
   Task     7 k-point     1 on csky010
  Tasks:     8 split into      4 X      2 BLACS grid
  Calculating blocksize based on n_basis =           30 max_nprow =            4 max_npcol =            2
  Scalapack blocksize set to:            4
  Required Scalapack workspace - INTEGER:            1 REAL:             1
  Partitioning the integration grid into batches with parallel hashing+maxmin method.
  | Number of batches:      442
  | Maximal batch size:     197
  | Minimal batch size:      49
  | Average batch size:      65.385
  | Standard deviation of batch sizes:      18.675

  Integration load balanced across     8 MPI tasks.
  Work distribution over tasks is as follows:
  Task     0 has       3614 integration points.
  Task     1 has       3577 integration points.
  Task     2 has       3623 integration points.
  Task     3 has       3645 integration points.
  Task     4 has       3590 integration points.
  Task     5 has       3677 integration points.
  Task     6 has       3590 integration points.
  Task     7 has       3584 integration points.
  Initializing partition tables, free-atom densities, potentials, etc. across the integration grid (initialize_grid_storage).
  | initialize_grid_storage: Actual outermost partition radius vs. multipole_radius_free
  | (-- VB: in principle, multipole_radius_free should be larger, hence this output)
  | Species        1: outer_partition_radius =              6.000000000000000 AA, multipole_radius_free =              6.071692442739658 AA.
  | Original list of interatomic distances with           2 x          2 entries is created.
  | Net number of integration points:    28900
  | of which are non-zero points    :    25640
  Obtaining max. number of non-zero basis functions in each batch (get_n_compute_maxes).
  | Maximal number of non-zero basis functions:       30 in task     0
  | Maximal number of non-zero basis functions:       30 in task     1
  | Maximal number of non-zero basis functions:       30 in task     2
  | Maximal number of non-zero basis functions:       30 in task     3
  | Maximal number of non-zero basis functions:       30 in task     4
  | Maximal number of non-zero basis functions:       30 in task     5
  | Maximal number of non-zero basis functions:       30 in task     6
  | Maximal number of non-zero basis functions:       30 in task     7
  Selecting the method for density update.
  Loop over occupied states selected for charge density update.
  Integrating Hamiltonian matrix: batch-based integration.
  Time summed over all CPUs for integration: real work        0.080 s, elapsed        0.088 s
  Integrating overlap matrix.
  Time summed over all CPUs for integration: real work        0.021 s, elapsed        0.025 s
  Deallocating overlap matrix.

  Updating Kohn-Sham eigenvalues, eigenvectors, occupation numbers, and Fermi level.
  Solving generalized eigenproblem
  Solving real symmetric generalised eigenvalue problem by standard ScaLAPACK.
  Transforming overlap matrix with ScaLAPACK and checking for singularities.
  : Overlap matrix is nonsingular, using Cholesky decomposition
  | Lowest eigenvalue:  0.369761E-04
  Factoring overlap matrix with Cholesky decomposition
  Using Cholesky factor for transformation
  Using 1-stage real ELPA solver
  Solving real symmetric generalised eigenvalue problem by standard ScaLAPACK.
  Using Cholesky factor for transformation
  Using 1-stage real ELPA solver
  Determining occupation numbers for Kohn-Sham eigenstates.
  | Chemical potential (Fermi level) in eV                 : -.10191274E+00
  | Error in electron count due to remaining E_F inaccuracy: 0.00000000E+00
  | Maximum occupation number of highest empty state:  0.00E+00

  Writing Kohn-Sham eigenvalues.

  Spin-up eigenvalues:

  State    Occupation    Eigenvalue [Ha]    Eigenvalue [eV]
      1       1.00000          -0.867310          -23.60072
      2       1.00000          -0.010080           -0.27428
      3       0.00000          -0.000612           -0.01664
      4       0.00000           0.149644            4.07203
      5       0.00000           0.200745            5.46255
      6       0.00000           0.200745            5.46255
      7       0.00000           0.248927            6.77365
      8       0.00000           0.612466           16.66606
      9       0.00000           0.635284           17.28696
     10       0.00000           0.635284           17.28696
     11       0.00000           0.706292           19.21919

  Spin-down eigenvalues:

  State    Occupation    Eigenvalue [Ha]    Eigenvalue [eV]
      1       0.00000           0.099224            2.70003
      2       0.00000           0.108959            2.96493
      3       0.00000           0.521385           14.18760
      4       0.00000           0.524407           14.26983
      5       0.00000           1.097141           29.85472
      6       0.00000           1.208612           32.88801
      7       0.00000           1.208612           32.88801
      8       0.00000           1.300694           35.39370
      9       0.00000           1.300694           35.39370
     10       0.00000           1.494991           40.68078
     11       0.00000           1.761851           47.94241

  Current spin moment of the entire structure :
  | N = N_up - N_down :    2.00
  | S                 :    1.00
  | J                 :    3.00

  Highest occupied state (VBM) at     -0.27428042 eV
  | Occupation number:      1.00000000
  | Spin channel:        1

  Lowest unoccupied state (CBM) at    -0.01664226 eV
  | Occupation number:      0.00000000
  | Spin channel:        1

  Overall HOMO-LUMO gap:      0.25763816 eV.
  Calculating total energy contributions from superposition of free atom densities.

  Total energy components:
  | Sum of eigenvalues            :          -0.87739010 Ha         -23.87499933 eV
  | XC energy correction          :          -0.72981959 Ha         -19.85940147 eV
  | XC potential correction       :           0.94240836 Ha          25.64423627 eV
  | Free-atom electrostatic energy:           0.42318963 Ha          11.51557579 eV
  | Hartree energy correction     :           0.00000000 Ha           0.00000000 eV
  | van der Waals energy corr.    :           0.00000000 Ha           0.00000000 eV
  | Entropy correction            :           0.00000000 Ha           0.00000000 eV
  | ---------------------------
  | Total energy                  :          -0.24161170 Ha          -6.57458875 eV
  | Total energy, T -> 0          :          -0.24161170 Ha          -6.57458875 eV  <-- do not rely on this value for anything but (periodic) metals
  | Electronic free energy        :          -0.24161170 Ha          -6.57458875 eV

  Derived energy quantities:
  | Kinetic energy                :           1.30330306 Ha          35.46468076 eV
  | Electrostatic energy          :          -0.81509517 Ha         -22.17986804 eV
  | Energy correction for multipole
  | error in Hartree potential    :           0.00000000 Ha           0.00000000 eV
  | Sum of eigenvalues per atom                           :         -11.93749967 eV
  | Total energy (T->0) per atom                          :          -3.28729438 eV  <-- do not rely on this value for anything but (periodic) metals
  | Electronic free energy per atom                       :          -3.28729438 eV
  Initialize hartree_potential_storage
  Max. number of atoms included in rho_multipole:            2

  End scf initialization - timings             :  max(cpu_time)    wall_clock(cpu1)
  | Time for scf. initialization               :        0.041 s           0.041 s
  | Boundary condition initialization          :        0.000 s           0.000 s
  | Integration                                :        0.014 s           0.014 s
  | Solution of K.-S. eqns.                    :        0.007 s           0.007 s
  | Grid partitioning                          :        0.007 s           0.007 s
  | Preloading free-atom quantities on grid    :        0.004 s           0.004 s
  | Free-atom superposition energy             :        0.003 s           0.002 s
  | Total energy evaluation                    :        0.000 s           0.001 s
------------------------------------------------------------

------------------------------------------------------------
          Begin self-consistency iteration #    1

  Date     :  20220120, Time     :  153640.633
------------------------------------------------------------
  Evaluating new KS density.
  Integration grid: deviation in total charge (<rho> - N_e) =  -4.109080E-07
  | <rho_up-rho_dn> = N_up-N_dn =      2.0000; <|rho_up-rho_dn|> =      2.5389
  Pulay mixing of updated and previous charge densities.

  Evaluating partitioned Hartree potential by multipole expansion.
  | Analytical far-field extrapolation by fixed multipoles:
  | Hartree multipole sum: apparent total charge =  -0.259365E-04
  Summing up the Hartree potential.
  Time summed over all CPUs for potential: real work        0.034 s, elapsed        0.036 s
  | RMS charge density error from multipole expansion :   0.781915E-03

  Integrating Hamiltonian matrix: batch-based integration.
  Time summed over all CPUs for integration: real work        0.065 s, elapsed        0.071 s

  Updating Kohn-Sham eigenvalues, eigenvectors, occupation numbers, and Fermi level.
  Solving generalized eigenproblem
  Solving real symmetric generalised eigenvalue problem by standard ScaLAPACK.
  Using Cholesky factor for transformation
  Using 1-stage real ELPA solver
  Solving real symmetric generalised eigenvalue problem by standard ScaLAPACK.
  Using Cholesky factor for transformation
  Using 1-stage real ELPA solver
  Determining occupation numbers for Kohn-Sham eigenstates.
  | Chemical potential (Fermi level) in eV                 : -.94094049E+01
  | Error in electron count due to remaining E_F inaccuracy: 0.00000000E+00
  | Maximum occupation number of highest empty state:  0.00E+00

  Writing Kohn-Sham eigenvalues.

  Spin-up eigenvalues:

  State    Occupation    Eigenvalue [Ha]    Eigenvalue [eV]
      1       1.00000          -0.646219          -17.58451
      2       0.00000           0.043406            1.18115
      3       0.00000           0.065991            1.79571
      4       0.00000           0.170192            4.63117
      5       0.00000           0.199272            5.42247
      6       0.00000           0.199272            5.42247
      7       0.00000           0.316107            8.60170
      8       0.00000           0.647847           17.62882
      9       0.00000           0.647847           17.62882
     10       0.00000           0.657391           17.88852
     11       0.00000           0.729144           19.84103

  Spin-down eigenvalues:

  State    Occupation    Eigenvalue [Ha]    Eigenvalue [eV]
      1       1.00000          -0.470488          -12.80263
      2       0.00000           0.068729            1.87021
      3       0.00000           0.074023            2.01427
      4       0.00000           0.215742            5.87063
      5       0.00000           0.303609            8.26162
      6       0.00000           0.303609            8.26162
      7       0.00000           0.356550            9.70223
      8       0.00000           0.712434           19.38631
      9       0.00000           0.712434           19.38631
     10       0.00000           0.738976           20.10856
     11       0.00000           0.802912           21.84834

  Current spin moment of the entire structure :
  | N = N_up - N_down :    0.00
  | S                 :    0.00
  | J                 :    1.00

  Highest occupied state (VBM) at    -12.80262645 eV
  | Occupation number:      1.00000000
  | Spin channel:        2

  Lowest unoccupied state (CBM) at     1.18114832 eV
  | Occupation number:      0.00000000
  | Spin channel:        1

  Overall HOMO-LUMO gap:     13.98377477 eV.

  Total energy components:
  | Sum of eigenvalues            :          -1.11670664 Ha         -30.38713376 eV
  | XC energy correction          :          -0.40576664 Ha         -11.04147201 eV
  | XC potential correction       :           0.51763393 Ha          14.08553594 eV
  | Free-atom electrostatic energy:           0.42318963 Ha          11.51557579 eV
  | Hartree energy correction     :           0.08954305 Ha           2.43659023 eV
  | van der Waals energy corr.    :           0.00000000 Ha           0.00000000 eV
  | Entropy correction            :           0.00000000 Ha           0.00000000 eV
  | ---------------------------
  | Total energy                  :          -0.49210667 Ha         -13.39090381 eV
  | Total energy, T -> 0          :          -0.49210667 Ha         -13.39090381 eV  <-- do not rely on this value for anything but (periodic) metals
  | Electronic free energy        :          -0.49210667 Ha         -13.39090381 eV

  Derived energy quantities:
  | Kinetic energy                :           0.87053557 Ha          23.68847807 eV
  | Electrostatic energy          :          -0.95687560 Ha         -26.03790987 eV
  | Energy correction for multipole
  | error in Hartree potential    :           0.00001885 Ha           0.00051287 eV
  | Sum of eigenvalues per atom                           :         -15.19356688 eV
  | Total energy (T->0) per atom                          :          -6.69545191 eV  <-- do not rely on this value for anything but (periodic) metals
  | Electronic free energy per atom                       :          -6.69545191 eV

  Self-consistency convergence accuracy:
  | Change of charge/spin density : 0.1493E+00 0.1493E+00
  | Change of sum of eigenvalues  : -.6512E+01 eV
  | Change of total energy        : -.6816E+01 eV

  End self-consistency iteration #     1       :  max(cpu_time)    wall_clock(cpu1)
  | Time for this iteration                    :        0.027 s           0.027 s
  | Charge density update                      :        0.007 s           0.007 s
  | Density mixing                             :        0.001 s           0.001 s
  | Hartree multipole update                   :        0.001 s           0.001 s
  | Hartree multipole summation                :        0.005 s           0.005 s
  | Integration                                :        0.009 s           0.009 s
  | Solution of K.-S. eqns.                    :        0.002 s           0.002 s
  | Total energy evaluation                    :        0.000 s           0.001 s
------------------------------------------------------------

------------------------------------------------------------
          Begin self-consistency iteration #    2

  Date     :  20220120, Time     :  153640.662
------------------------------------------------------------
  Evaluating new KS density.
  Integration grid: deviation in total charge (<rho> - N_e) =  -2.465448E-07
  | <rho_up-rho_dn> = N_up-N_dn =     -2.0000; <|rho_up-rho_dn|> =      2.0000
  Pulay mixing of updated and previous charge densities.

  Evaluating partitioned Hartree potential by multipole expansion.
  | Analytical far-field extrapolation by fixed multipoles:
  | Hartree multipole sum: apparent total charge =  -0.233973E-04
  Summing up the Hartree potential.
  Time summed over all CPUs for potential: real work        0.032 s, elapsed        0.034 s
  | RMS charge density error from multipole expansion :   0.885153E-03

  Integrating Hamiltonian matrix: batch-based integration.
  Time summed over all CPUs for integration: real work        0.066 s, elapsed        0.072 s

  Updating Kohn-Sham eigenvalues, eigenvectors, occupation numbers, and Fermi level.
  Solving generalized eigenproblem
  Solving real symmetric generalised eigenvalue problem by standard ScaLAPACK.
  Using Cholesky factor for transformation
  Using 1-stage real ELPA solver
  Solving real symmetric generalised eigenvalue problem by standard ScaLAPACK.
  Using Cholesky factor for transformation
  Using 1-stage real ELPA solver
  Determining occupation numbers for Kohn-Sham eigenstates.
  | Chemical potential (Fermi level) in eV                 : -.14222370E+02
  | Error in electron count due to remaining E_F inaccuracy: 0.00000000E+00
  | Maximum occupation number of highest empty state:  0.00E+00

  Current spin moment of the entire structure :
  | N = N_up - N_down :    0.00
  | S                 :    0.00
  | J                 :    1.00

  Highest occupied state (VBM) at    -17.16035068 eV
  | Occupation number:      1.00000000
  | Spin channel:        2

  Lowest unoccupied state (CBM) at     0.95015231 eV
  | Occupation number:      0.00000000
  | Spin channel:        1

  Overall HOMO-LUMO gap:     18.11050299 eV.

  Total energy components:
  | Sum of eigenvalues            :          -1.49458251 Ha         -40.66965946 eV
  | XC energy correction          :          -0.61970781 Ha         -16.86310738 eV
  | XC potential correction       :           0.79713383 Ha          21.69111518 eV
  | Free-atom electrostatic energy:           0.42318963 Ha          11.51557579 eV
  | Hartree energy correction     :           0.04903882 Ha           1.33441426 eV
  | van der Waals energy corr.    :           0.00000000 Ha           0.00000000 eV
  | Entropy correction            :           0.00000000 Ha           0.00000000 eV
  | ---------------------------
  | Total energy                  :          -0.84492803 Ha         -22.99166161 eV
  | Total energy, T -> 0          :          -0.84492803 Ha         -22.99166161 eV  <-- do not rely on this value for anything but (periodic) metals
  | Electronic free energy        :          -0.84492803 Ha         -22.99166161 eV

  Derived energy quantities:
  | Kinetic energy                :           0.79018503 Ha          21.50202861 eV
  | Electrostatic energy          :          -1.01540526 Ha         -27.63058284 eV
  | Energy correction for multipole
  | error in Hartree potential    :           0.00004459 Ha           0.00121323 eV
  | Sum of eigenvalues per atom                           :         -20.33482973 eV
  | Total energy (T->0) per atom                          :         -11.49583081 eV  <-- do not rely on this value for anything but (periodic) metals
  | Electronic free energy per atom                       :         -11.49583081 eV

  Self-consistency convergence accuracy:
  | Change of charge/spin density : 0.1804E+00 0.3642E+00
  | Change of sum of eigenvalues  : -.1028E+02 eV
  | Change of total energy        : -.9601E+01 eV

  End self-consistency iteration #     2       :  max(cpu_time)    wall_clock(cpu1)
  | Time for this iteration                    :        0.025 s           0.025 s
  | Charge density update                      :        0.007 s           0.006 s
  | Density mixing                             :        0.001 s           0.001 s
  | Hartree multipole update                   :        0.001 s           0.001 s
  | Hartree multipole summation                :        0.004 s           0.005 s
  | Integration                                :        0.009 s           0.009 s
  | Solution of K.-S. eqns.                    :        0.001 s           0.002 s
  | Total energy evaluation                    :        0.000 s           0.001 s
------------------------------------------------------------

------------------------------------------------------------
          Begin self-consistency iteration #    3

  Date     :  20220120, Time     :  153640.690
------------------------------------------------------------
  Evaluating new KS density.
  Integration grid: deviation in total charge (<rho> - N_e) =  -2.246775E-07
  | <rho_up-rho_dn> = N_up-N_dn =     -1.7339; <|rho_up-rho_dn|> =      1.7339
  Pulay mixing of updated and previous charge densities.

  Evaluating partitioned Hartree potential by multipole expansion.
  | Analytical far-field extrapolation by fixed multipoles:
  | Hartree multipole sum: apparent total charge =  -0.255704E-04
  Summing up the Hartree potential.
  Time summed over all CPUs for potential: real work        0.033 s, elapsed        0.035 s
  | RMS charge density error from multipole expansion :   0.462260E-03

  Integrating Hamiltonian matrix: batch-based integration.
  Time summed over all CPUs for integration: real work        0.071 s, elapsed        0.080 s

  Updating Kohn-Sham eigenvalues, eigenvectors, occupation numbers, and Fermi level.
  Solving generalized eigenproblem
  Solving real symmetric generalised eigenvalue problem by standard ScaLAPACK.
  Using Cholesky factor for transformation
  Using 1-stage real ELPA solver
  Solving real symmetric generalised eigenvalue problem by standard ScaLAPACK.
  Using Cholesky factor for transformation
  Using 1-stage real ELPA solver
  Determining occupation numbers for Kohn-Sham eigenstates.
  | Chemical potential (Fermi level) in eV                 : -.10281391E+02
  | Error in electron count due to remaining E_F inaccuracy: 0.00000000E+00
  | Maximum occupation number of highest empty state:  0.00E+00

  Current spin moment of the entire structure :
  | N = N_up - N_down :    0.00
  | S                 :    0.00
  | J                 :    1.00

  Highest occupied state (VBM) at    -14.07028762 eV
  | Occupation number:      1.00000000
  | Spin channel:        2

  Lowest unoccupied state (CBM) at     0.82392667 eV
  | Occupation number:      0.00000000
  | Spin channel:        1

  Overall HOMO-LUMO gap:     14.89421429 eV.

  Total energy components:
  | Sum of eigenvalues            :          -1.19777818 Ha         -32.59320271 eV
  | XC energy correction          :          -0.43022490 Ha         -11.70701518 eV
  | XC potential correction       :           0.55010474 Ha          14.96911146 eV
  | Free-atom electrostatic energy:           0.42318963 Ha          11.51557579 eV
  | Hartree energy correction     :           0.11307069 Ha           3.07681015 eV
  | van der Waals energy corr.    :           0.00000000 Ha           0.00000000 eV
  | Entropy correction            :           0.00000000 Ha           0.00000000 eV
  | ---------------------------
  | Total energy                  :          -0.54163802 Ha         -14.73872049 eV
  | Total energy, T -> 0          :          -0.54163802 Ha         -14.73872049 eV  <-- do not rely on this value for anything but (periodic) metals
  | Electronic free energy        :          -0.54163802 Ha         -14.73872049 eV

  Derived energy quantities:
  | Kinetic energy                :           0.73706988 Ha          20.05669202 eV
  | Electrostatic energy          :          -0.84848301 Ha         -23.08839732 eV
  | Energy correction for multipole
  | error in Hartree potential    :           0.00000295 Ha           0.00008038 eV
  | Sum of eigenvalues per atom                           :         -16.29660135 eV
  | Total energy (T->0) per atom                          :          -7.36936024 eV  <-- do not rely on this value for anything but (periodic) metals
  | Electronic free energy per atom                       :          -7.36936024 eV

  Self-consistency convergence accuracy:
  | Change of charge/spin density : 0.3286E+00 0.2935E+00
  | Change of sum of eigenvalues  : 0.8076E+01 eV
  | Change of total energy        : 0.8253E+01 eV

  End self-consistency iteration #     3       :  max(cpu_time)    wall_clock(cpu1)
  | Time for this iteration                    :        0.027 s           0.026 s
  | Charge density update                      :        0.006 s           0.005 s
  | Density mixing                             :        0.001 s           0.002 s
  | Hartree multipole update                   :        0.001 s           0.001 s
  | Hartree multipole summation                :        0.005 s           0.005 s
  | Integration                                :        0.010 s           0.010 s
  | Solution of K.-S. eqns.                    :        0.002 s           0.002 s
  | Total energy evaluation                    :        0.000 s           0.000 s
------------------------------------------------------------

------------------------------------------------------------
          Begin self-consistency iteration #    4

  Date     :  20220120, Time     :  153640.720
------------------------------------------------------------
  Evaluating new KS density.
  Integration grid: deviation in total charge (<rho> - N_e) =  -2.387254E-07
  | <rho_up-rho_dn> = N_up-N_dn =     -1.8742; <|rho_up-rho_dn|> =      1.8742
  Pulay mixing of updated and previous charge densities.

  Evaluating partitioned Hartree potential by multipole expansion.
  | Analytical far-field extrapolation by fixed multipoles:
  | Hartree multipole sum: apparent total charge =  -0.310836E-04
  Summing up the Hartree potential.
  Time summed over all CPUs for potential: real work        0.034 s, elapsed        0.037 s
  | RMS charge density error from multipole expansion :   0.621978E-02

  Integrating Hamiltonian matrix: batch-based integration.
  Time summed over all CPUs for integration: real work        0.067 s, elapsed        0.071 s

  Updating Kohn-Sham eigenvalues, eigenvectors, occupation numbers, and Fermi level.
  Solving generalized eigenproblem
  Solving real symmetric generalised eigenvalue problem by standard ScaLAPACK.
  Using Cholesky factor for transformation
  Using 1-stage real ELPA solver
  Solving real symmetric generalised eigenvalue problem by standard ScaLAPACK.
  Using Cholesky factor for transformation
  Using 1-stage real ELPA solver
  Determining occupation numbers for Kohn-Sham eigenstates.
  | Chemical potential (Fermi level) in eV                 : -.24669202E+02
  | Error in electron count due to remaining E_F inaccuracy: 0.00000000E+00
  | Maximum occupation number of highest empty state:  0.00E+00

  Current spin moment of the entire structure :
  | N = N_up - N_down :    0.00
  | S                 :    0.00
  | J                 :    1.00

  Highest occupied state (VBM) at    -26.41628892 eV
  | Occupation number:      1.00000000
  | Spin channel:        2

  Lowest unoccupied state (CBM) at    -1.23039339 eV
  | Occupation number:      0.00000000
  | Spin channel:        1

  Overall HOMO-LUMO gap:     25.18589553 eV.

  Total energy components:
  | Sum of eigenvalues            :          -1.99749219 Ha         -54.35452794 eV
  | XC energy correction          :          -0.56581075 Ha         -15.39649398 eV
  | XC potential correction       :           0.72690315 Ha          19.78004105 eV
  | Free-atom electrostatic energy:           0.42318963 Ha          11.51557579 eV
  | Hartree energy correction     :           0.28901103 Ha           7.86439022 eV
  | van der Waals energy corr.    :           0.00000000 Ha           0.00000000 eV
  | Entropy correction            :           0.00000000 Ha           0.00000000 eV
  | ---------------------------
  | Total energy                  :          -1.12419913 Ha         -30.59101486 eV
  | Total energy, T -> 0          :          -1.12419913 Ha         -30.59101486 eV  <-- do not rely on this value for anything but (periodic) metals
  | Electronic free energy        :          -1.12419913 Ha         -30.59101486 eV

  Derived energy quantities:
  | Kinetic energy                :          -2.01584787 Ha         -54.85401143 eV
  | Electrostatic energy          :           1.45745949 Ha          39.65949055 eV
  | Energy correction for multipole
  | error in Hartree potential    :          -0.00031278 Ha          -0.00851118 eV
  | Sum of eigenvalues per atom                           :         -27.17726397 eV
  | Total energy (T->0) per atom                          :         -15.29550743 eV  <-- do not rely on this value for anything but (periodic) metals
  | Electronic free energy per atom                       :         -15.29550743 eV

  Self-consistency convergence accuracy:
  | Change of charge/spin density : 0.2269E+00 0.3327E+00
  | Change of sum of eigenvalues  : -.2176E+02 eV
  | Change of total energy        : -.1585E+02 eV

  End self-consistency iteration #     4       :  max(cpu_time)    wall_clock(cpu1)
  | Time for this iteration                    :        0.026 s           0.025 s
  | Charge density update                      :        0.006 s           0.006 s
  | Density mixing                             :        0.001 s           0.001 s
  | Hartree multipole update                   :        0.001 s           0.001 s
  | Hartree multipole summation                :        0.005 s           0.005 s
  | Integration                                :        0.009 s           0.010 s
  | Solution of K.-S. eqns.                    :        0.002 s           0.001 s
  | Total energy evaluation                    :        0.000 s           0.000 s
------------------------------------------------------------

------------------------------------------------------------
          Begin self-consistency iteration #    5

  Date     :  20220120, Time     :  153640.750
------------------------------------------------------------
  Evaluating new KS density.
  Integration grid: deviation in total charge (<rho> - N_e) =  -2.123114E-07
  | <rho_up-rho_dn> = N_up-N_dn =     -1.3806; <|rho_up-rho_dn|> =      1.3818
  Pulay mixing of updated and previous charge densities.

  Evaluating partitioned Hartree potential by multipole expansion.
  | Analytical far-field extrapolation by fixed multipoles:
  | Hartree multipole sum: apparent total charge =   0.414948E-04
  Summing up the Hartree potential.
  Time summed over all CPUs for potential: real work        0.035 s, elapsed        0.037 s
  | RMS charge density error from multipole expansion :   0.332289E-01

  Integrating Hamiltonian matrix: batch-based integration.
  Time summed over all CPUs for integration: real work        0.061 s, elapsed        0.066 s

  Updating Kohn-Sham eigenvalues, eigenvectors, occupation numbers, and Fermi level.
  Solving generalized eigenproblem
  Solving real symmetric generalised eigenvalue problem by standard ScaLAPACK.
  Using Cholesky factor for transformation
  Using 1-stage real ELPA solver
  Solving real symmetric generalised eigenvalue problem by standard ScaLAPACK.
  Using Cholesky factor for transformation
  Using 1-stage real ELPA solver
  Determining occupation numbers for Kohn-Sham eigenstates.
  | Chemical potential (Fermi level) in eV                 : 0.26245831E+01
  | Error in electron count due to remaining E_F inaccuracy: 0.00000000E+00
  | Maximum occupation number of highest empty state:  0.00E+00

  Current spin moment of the entire structure :
  | N = N_up - N_down :    0.00
  | S                 :    0.00
  | J                 :    1.00

  Highest occupied state (VBM) at      2.09120089 eV
  | Occupation number:      1.00000000
  | Spin channel:        2
 * WARNING: The VBM is higher than the internal energy zero!

  Lowest unoccupied state (CBM) at     2.71938706 eV
  | Occupation number:      0.00000000
  | Spin channel:        1

  Overall HOMO-LUMO gap:      0.62818617 eV.

  Total energy components:
  | Sum of eigenvalues            :           0.15359655 Ha           4.17957474 eV
  | XC energy correction          :          -4.97334450 Ha        -135.33158938 eV
  | XC potential correction       :           6.45687877 Ha         175.70061090 eV
  | Free-atom electrostatic energy:           0.42318963 Ha          11.51557579 eV
  | Hartree energy correction     :         -12.01822740 Ha        -327.03260686 eV
  | van der Waals energy corr.    :           0.00000000 Ha           0.00000000 eV
  | Entropy correction            :           0.00000000 Ha           0.00000000 eV
  | ---------------------------
  | Total energy                  :          -9.95790695 Ha        -270.96843480 eV
  | Total energy, T -> 0          :          -9.95790695 Ha        -270.96843480 eV  <-- do not rely on this value for anything but (periodic) metals
  | Electronic free energy        :          -9.95790695 Ha        -270.96843480 eV

  Derived energy quantities:
  | Kinetic energy                :          -3.03295467 Ha         -82.53089579 eV
  | Electrostatic energy          :          -1.95160778 Ha         -53.10594964 eV
  | Energy correction for multipole
  | error in Hartree potential    :           0.00186761 Ha           0.05082015 eV
  | Sum of eigenvalues per atom                           :           2.08978737 eV
  | Total energy (T->0) per atom                          :        -135.48421740 eV  <-- do not rely on this value for anything but (periodic) metals
  | Electronic free energy per atom                       :        -135.48421740 eV

  Self-consistency convergence accuracy:
  | Change of charge/spin density : 0.1059E+01 0.1866E+00
  | Change of sum of eigenvalues  : 0.5853E+02 eV
  | Change of total energy        : -.2404E+03 eV

  End self-consistency iteration #     5       :  max(cpu_time)    wall_clock(cpu1)
  | Time for this iteration                    :        0.026 s           0.025 s
  | Charge density update                      :        0.007 s           0.006 s
  | Density mixing                             :        0.001 s           0.001 s
  | Hartree multipole update                   :        0.001 s           0.002 s
  | Hartree multipole summation                :        0.005 s           0.005 s
  | Integration                                :        0.008 s           0.008 s
  | Solution of K.-S. eqns.                    :        0.002 s           0.002 s
  | Total energy evaluation                    :        0.000 s           0.001 s
------------------------------------------------------------

------------------------------------------------------------
          Begin self-consistency iteration #    6

  Date     :  20220120, Time     :  153640.780
------------------------------------------------------------
  Evaluating new KS density.
  Integration grid: deviation in total charge (<rho> - N_e) =  -4.862957E-09
  | <rho_up-rho_dn> = N_up-N_dn =     -0.1390; <|rho_up-rho_dn|> =      1.7585
  Pulay mixing of updated and previous charge densities.

  Evaluating partitioned Hartree potential by multipole expansion.
  | Analytical far-field extrapolation by fixed multipoles:
  | Hartree multipole sum: apparent total charge =   0.121689E-04
  Summing up the Hartree potential.
  Time summed over all CPUs for potential: real work        0.033 s, elapsed        0.035 s
  | RMS charge density error from multipole expansion :   0.203574E-01

  Integrating Hamiltonian matrix: batch-based integration.
  Time summed over all CPUs for integration: real work        0.065 s, elapsed        0.071 s

  Updating Kohn-Sham eigenvalues, eigenvectors, occupation numbers, and Fermi level.
  Solving generalized eigenproblem
  Solving real symmetric generalised eigenvalue problem by standard ScaLAPACK.
  Using Cholesky factor for transformation
  Using 1-stage real ELPA solver
  Solving real symmetric generalised eigenvalue problem by standard ScaLAPACK.
  Using Cholesky factor for transformation
  Using 1-stage real ELPA solver
  Determining occupation numbers for Kohn-Sham eigenstates.
  | Chemical potential (Fermi level) in eV                 : 0.10239095E+01
  | Error in electron count due to remaining E_F inaccuracy: 0.00000000E+00
  | Maximum occupation number of highest empty state:  0.00E+00

  Current spin moment of the entire structure :
  | N = N_up - N_down :    0.00
  | S                 :    0.00
  | J                 :    1.00

  Highest occupied state (VBM) at      0.62526916 eV
  | Occupation number:      1.00000000
  | Spin channel:        1
 * WARNING: The VBM is higher than the internal energy zero!

  Lowest unoccupied state (CBM) at     1.41460687 eV
  | Occupation number:      0.00000000
  | Spin channel:        2

  Overall HOMO-LUMO gap:      0.78933771 eV.

  Total energy components:
  | Sum of eigenvalues            :           0.04472955 Ha           1.21715286 eV
  | XC energy correction          :          -2.87560591 Ha         -78.24921796 eV
  | XC potential correction       :           3.71981464 Ha         101.22130655 eV
  | Free-atom electrostatic energy:           0.42318963 Ha          11.51557579 eV
  | Hartree energy correction     :          -5.18579938 Ha        -141.11278092 eV
  | van der Waals energy corr.    :           0.00000000 Ha           0.00000000 eV
  | Entropy correction            :           0.00000000 Ha           0.00000000 eV
  | ---------------------------
  | Total energy                  :          -3.87367147 Ha        -105.40796368 eV
  | Total energy, T -> 0          :          -3.87367147 Ha        -105.40796368 eV  <-- do not rely on this value for anything but (periodic) metals
  | Electronic free energy        :          -3.87367147 Ha        -105.40796368 eV

  Derived energy quantities:
  | Kinetic energy                :           2.65489849 Ha          72.24346375 eV
  | Electrostatic energy          :          -3.65296406 Ha         -99.40220947 eV
  | Energy correction for multipole
  | error in Hartree potential    :           0.00120212 Ha           0.03271126 eV
  | Sum of eigenvalues per atom                           :           0.60857643 eV
  | Total energy (T->0) per atom                          :         -52.70398184 eV  <-- do not rely on this value for anything but (periodic) metals
  | Electronic free energy per atom                       :         -52.70398184 eV

  Self-consistency convergence accuracy:
  | Change of charge/spin density : 0.3425E+01 0.8186E+00
  | Change of sum of eigenvalues  : -.2962E+01 eV
  | Change of total energy        : 0.1656E+03 eV

  End self-consistency iteration #     6       :  max(cpu_time)    wall_clock(cpu1)
  | Time for this iteration                    :        0.026 s           0.026 s
  | Charge density update                      :        0.007 s           0.006 s
  | Density mixing                             :        0.002 s           0.001 s
  | Hartree multipole update                   :        0.001 s           0.002 s
  | Hartree multipole summation                :        0.005 s           0.005 s
  | Integration                                :        0.009 s           0.009 s
  | Solution of K.-S. eqns.                    :        0.001 s           0.002 s
  | Total energy evaluation                    :        0.000 s           0.001 s
------------------------------------------------------------

------------------------------------------------------------
          Begin self-consistency iteration #    7

  Date     :  20220120, Time     :  153640.810
------------------------------------------------------------
  Evaluating new KS density.
  Integration grid: deviation in total charge (<rho> - N_e) =  -1.028047E-08
  | <rho_up-rho_dn> = N_up-N_dn =      0.0919; <|rho_up-rho_dn|> =      1.0340
  Pulay mixing of updated and previous charge densities.

  Evaluating partitioned Hartree potential by multipole expansion.
  | Analytical far-field extrapolation by fixed multipoles:
  | Hartree multipole sum: apparent total charge =   0.379483E-05
  Summing up the Hartree potential.
  Time summed over all CPUs for potential: real work        0.034 s, elapsed        0.035 s
  | RMS charge density error from multipole expansion :   0.190769E-01

  Integrating Hamiltonian matrix: batch-based integration.
  Time summed over all CPUs for integration: real work        0.063 s, elapsed        0.067 s

  Updating Kohn-Sham eigenvalues, eigenvectors, occupation numbers, and Fermi level.
  Solving generalized eigenproblem
  Solving real symmetric generalised eigenvalue problem by standard ScaLAPACK.
  Using Cholesky factor for transformation
  Using 1-stage real ELPA solver
  Solving real symmetric generalised eigenvalue problem by standard ScaLAPACK.
  Using Cholesky factor for transformation
  Using 1-stage real ELPA solver
  Determining occupation numbers for Kohn-Sham eigenstates.
  | Chemical potential (Fermi level) in eV                 : 0.88161449E+00
  | Error in electron count due to remaining E_F inaccuracy: 0.00000000E+00
  | Maximum occupation number of highest empty state:  0.00E+00

  Current spin moment of the entire structure :
  | N = N_up - N_down :    0.00
  | S                 :    0.00
  | J                 :    1.00

  Highest occupied state (VBM) at      0.44143534 eV
  | Occupation number:      1.00000000
  | Spin channel:        1
 * WARNING: The VBM is higher than the internal energy zero!

  Lowest unoccupied state (CBM) at     1.17111631 eV
  | Occupation number:      0.00000000
  | Spin channel:        2

  Overall HOMO-LUMO gap:      0.72968097 eV.

  Total energy components:
  | Sum of eigenvalues            :           0.02681278 Ha           0.72961274 eV
  | XC energy correction          :          -2.68120686 Ha         -72.95935088 eV
  | XC potential correction       :           3.46671984 Ha          94.33424645 eV
  | Free-atom electrostatic energy:           0.42318963 Ha          11.51557579 eV
  | Hartree energy correction     :          -4.62405713 Ha        -125.82699657 eV
  | van der Waals energy corr.    :           0.00000000 Ha           0.00000000 eV
  | Entropy correction            :           0.00000000 Ha           0.00000000 eV
  | ---------------------------
  | Total energy                  :          -3.38854175 Ha         -92.20691248 eV
  | Total energy, T -> 0          :          -3.38854175 Ha         -92.20691248 eV  <-- do not rely on this value for anything but (periodic) metals
  | Electronic free energy        :          -3.38854175 Ha         -92.20691248 eV

  Derived energy quantities:
  | Kinetic energy                :           2.97223647 Ha          80.87866949 eV
  | Electrostatic energy          :          -3.67957136 Ha        -100.12623109 eV
  | Energy correction for multipole
  | error in Hartree potential    :           0.00112893 Ha           0.03071964 eV
  | Sum of eigenvalues per atom                           :           0.36480637 eV
  | Total energy (T->0) per atom                          :         -46.10345624 eV  <-- do not rely on this value for anything but (periodic) metals
  | Electronic free energy per atom                       :         -46.10345624 eV

  Self-consistency convergence accuracy:
  | Change of charge/spin density : 0.2185E+01 0.4498E+00
  | Change of sum of eigenvalues  : -.4875E+00 eV
  | Change of total energy        : 0.1320E+02 eV

  End self-consistency iteration #     7       :  max(cpu_time)    wall_clock(cpu1)
  | Time for this iteration                    :        0.028 s           0.027 s
  | Charge density update                      :        0.007 s           0.006 s
  | Density mixing                             :        0.003 s           0.003 s
  | Hartree multipole update                   :        0.002 s           0.002 s
  | Hartree multipole summation                :        0.005 s           0.005 s
  | Integration                                :        0.008 s           0.008 s
  | Solution of K.-S. eqns.                    :        0.001 s           0.002 s
  | Total energy evaluation                    :        0.000 s           0.000 s
------------------------------------------------------------

------------------------------------------------------------
          Begin self-consistency iteration #    8

  Date     :  20220120, Time     :  153640.840
------------------------------------------------------------
  Evaluating new KS density.
  Integration grid: deviation in total charge (<rho> - N_e) =   4.456214E-09
  | <rho_up-rho_dn> = N_up-N_dn =      0.2581; <|rho_up-rho_dn|> =      1.0398
  Pulay mixing of updated and previous charge densities.

  Evaluating partitioned Hartree potential by multipole expansion.
  | Analytical far-field extrapolation by fixed multipoles:
  | Hartree multipole sum: apparent total charge =  -0.464611E-04
  Summing up the Hartree potential.
  Time summed over all CPUs for potential: real work        0.032 s, elapsed        0.033 s
  | RMS charge density error from multipole expansion :   0.185820E-02

  Integrating Hamiltonian matrix: batch-based integration.
  Time summed over all CPUs for integration: real work        0.071 s, elapsed        0.075 s

  Updating Kohn-Sham eigenvalues, eigenvectors, occupation numbers, and Fermi level.
  Solving generalized eigenproblem
  Solving real symmetric generalised eigenvalue problem by standard ScaLAPACK.
  Using Cholesky factor for transformation
  Using 1-stage real ELPA solver
  Solving real symmetric generalised eigenvalue problem by standard ScaLAPACK.
  Using Cholesky factor for transformation
  Using 1-stage real ELPA solver
  Determining occupation numbers for Kohn-Sham eigenstates.
  | Chemical potential (Fermi level) in eV                 : -.18142581E+02
  | Error in electron count due to remaining E_F inaccuracy: 0.00000000E+00
  | Maximum occupation number of highest empty state:  0.00E+00

  Current spin moment of the entire structure :
  | N = N_up - N_down :    0.00
  | S                 :    0.00
  | J                 :    1.00

  Highest occupied state (VBM) at    -20.58120593 eV
  | Occupation number:      1.00000000
  | Spin channel:        2

  Lowest unoccupied state (CBM) at    -1.01849679 eV
  | Occupation number:      0.00000000
  | Spin channel:        2

  Overall HOMO-LUMO gap:     19.56270914 eV.

  Total energy components:
  | Sum of eigenvalues            :          -1.52924590 Ha         -41.61289810 eV
  | XC energy correction          :          -0.63076735 Ha         -17.16405289 eV
  | XC potential correction       :           0.80666288 Ha          21.95041391 eV
  | Free-atom electrostatic energy:           0.42318963 Ha          11.51557579 eV
  | Hartree energy correction     :           0.02445470 Ha           0.66544615 eV
  | van der Waals energy corr.    :           0.00000000 Ha           0.00000000 eV
  | Entropy correction            :           0.00000000 Ha           0.00000000 eV
  | ---------------------------
  | Total energy                  :          -0.90570603 Ha         -24.64551513 eV
  | Total energy, T -> 0          :          -0.90570603 Ha         -24.64551513 eV  <-- do not rely on this value for anything but (periodic) metals
  | Electronic free energy        :          -0.90570603 Ha         -24.64551513 eV

  Derived energy quantities:
  | Kinetic energy                :           0.99295911 Ha          27.01979218 eV
  | Electrostatic energy          :          -1.26789780 Ha         -34.50125443 eV
  | Energy correction for multipole
  | error in Hartree potential    :           0.00010393 Ha           0.00282813 eV
  | Sum of eigenvalues per atom                           :         -20.80644905 eV
  | Total energy (T->0) per atom                          :         -12.32275757 eV  <-- do not rely on this value for anything but (periodic) metals
  | Electronic free energy per atom                       :         -12.32275757 eV

  Self-consistency convergence accuracy:
  | Change of charge/spin density : 0.2062E+01 0.4041E+00
  | Change of sum of eigenvalues  : -.4234E+02 eV
  | Change of total energy        : 0.6756E+02 eV

  End self-consistency iteration #     8       :  max(cpu_time)    wall_clock(cpu1)
  | Time for this iteration                    :        0.026 s           0.025 s
  | Charge density update                      :        0.006 s           0.006 s
  | Density mixing                             :        0.002 s           0.001 s
  | Hartree multipole update                   :        0.001 s           0.002 s
  | Hartree multipole summation                :        0.004 s           0.004 s
  | Integration                                :        0.010 s           0.010 s
  | Solution of K.-S. eqns.                    :        0.001 s           0.001 s
  | Total energy evaluation                    :        0.000 s           0.000 s
------------------------------------------------------------

------------------------------------------------------------
          Begin self-consistency iteration #    9

  Date     :  20220120, Time     :  153640.870
------------------------------------------------------------
  Evaluating new KS density.
  Integration grid: deviation in total charge (<rho> - N_e) =  -3.266616E-08
  | <rho_up-rho_dn> = N_up-N_dn =     -0.0124; <|rho_up-rho_dn|> =      0.0925
  Pulay mixing of updated and previous charge densities.

  Evaluating partitioned Hartree potential by multipole expansion.
  | Analytical far-field extrapolation by fixed multipoles:
  | Hartree multipole sum: apparent total charge =  -0.538590E-04
  Summing up the Hartree potential.
  Time summed over all CPUs for potential: real work        0.032 s, elapsed        0.033 s
  | RMS charge density error from multipole expansion :   0.448117E-03

  Integrating Hamiltonian matrix: batch-based integration.
  Time summed over all CPUs for integration: real work        0.071 s, elapsed        0.075 s

  Updating Kohn-Sham eigenvalues, eigenvectors, occupation numbers, and Fermi level.
  Solving generalized eigenproblem
  Solving real symmetric generalised eigenvalue problem by standard ScaLAPACK.
  Using Cholesky factor for transformation
  Using 1-stage real ELPA solver
  Solving real symmetric generalised eigenvalue problem by standard ScaLAPACK.
  Using Cholesky factor for transformation
  Using 1-stage real ELPA solver
  Determining occupation numbers for Kohn-Sham eigenstates.
  | Chemical potential (Fermi level) in eV                 : -.20643453E+02
  | Error in electron count due to remaining E_F inaccuracy: 0.00000000E+00
  | Maximum occupation number of highest empty state:  0.00E+00

  Current spin moment of the entire structure :
  | N = N_up - N_down :    0.00
  | S                 :    0.00
  | J                 :    1.00

  Highest occupied state (VBM) at    -23.46296455 eV
  | Occupation number:      1.00000000
  | Spin channel:        2

  Lowest unoccupied state (CBM) at    -1.18811187 eV
  | Occupation number:      0.00000000
  | Spin channel:        2

  Overall HOMO-LUMO gap:     22.27485269 eV.

  Total energy components:
  | Sum of eigenvalues            :          -1.73201706 Ha         -47.13058223 eV
  | XC energy correction          :          -0.53319857 Ha         -14.50907117 eV
  | XC potential correction       :           0.68321860 Ha          18.59132409 eV
  | Free-atom electrostatic energy:           0.42318963 Ha          11.51557579 eV
  | Hartree energy correction     :           0.18015995 Ha           4.90240170 eV
  | van der Waals energy corr.    :           0.00000000 Ha           0.00000000 eV
  | Entropy correction            :           0.00000000 Ha           0.00000000 eV
  | ---------------------------
  | Total energy                  :          -0.97864744 Ha         -26.63035182 eV
  | Total energy, T -> 0          :          -0.97864744 Ha         -26.63035182 eV  <-- do not rely on this value for anything but (periodic) metals
  | Electronic free energy        :          -0.97864744 Ha         -26.63035182 eV

  Derived energy quantities:
  | Kinetic energy                :           0.34642923 Ha           9.42681906 eV
  | Electrostatic energy          :          -0.79187811 Ha         -21.54809972 eV
  | Energy correction for multipole
  | error in Hartree potential    :           0.00002176 Ha           0.00059206 eV
  | Sum of eigenvalues per atom                           :         -23.56529112 eV
  | Total energy (T->0) per atom                          :         -13.31517591 eV  <-- do not rely on this value for anything but (periodic) metals
  | Electronic free energy per atom                       :         -13.31517591 eV

  Self-consistency convergence accuracy:
  | Change of charge/spin density : 0.2459E+00 0.4774E-01
  | Change of sum of eigenvalues  : -.5518E+01 eV
  | Change of total energy        : -.1985E+01 eV

  End self-consistency iteration #     9       :  max(cpu_time)    wall_clock(cpu1)
  | Time for this iteration                    :        0.026 s           0.025 s
  | Charge density update                      :        0.006 s           0.005 s
  | Density mixing                             :        0.002 s           0.002 s
  | Hartree multipole update                   :        0.001 s           0.001 s
  | Hartree multipole summation                :        0.004 s           0.005 s
  | Integration                                :        0.010 s           0.009 s
  | Solution of K.-S. eqns.                    :        0.001 s           0.002 s
  | Total energy evaluation                    :        0.000 s           0.001 s
------------------------------------------------------------

------------------------------------------------------------
          Begin self-consistency iteration #   10

  Date     :  20220120, Time     :  153640.900
------------------------------------------------------------
  Evaluating new KS density.
  Integration grid: deviation in total charge (<rho> - N_e) =  -2.992623E-08
  | <rho_up-rho_dn> = N_up-N_dn =     -0.0442; <|rho_up-rho_dn|> =      0.0599
  Pulay mixing of updated and previous charge densities.

  Evaluating partitioned Hartree potential by multipole expansion.
  | Analytical far-field extrapolation by fixed multipoles:
  | Hartree multipole sum: apparent total charge =  -0.760334E-04
  Summing up the Hartree potential.
  Time summed over all CPUs for potential: real work        0.034 s, elapsed        0.038 s
  | RMS charge density error from multipole expansion :   0.353178E-02

  Integrating Hamiltonian matrix: batch-based integration.
  Time summed over all CPUs for integration: real work        0.073 s, elapsed        0.076 s

  Updating Kohn-Sham eigenvalues, eigenvectors, occupation numbers, and Fermi level.
  Solving generalized eigenproblem
  Solving real symmetric generalised eigenvalue problem by standard ScaLAPACK.
  Using Cholesky factor for transformation
  Using 1-stage real ELPA solver
  Solving real symmetric generalised eigenvalue problem by standard ScaLAPACK.
  Using Cholesky factor for transformation
  Using 1-stage real ELPA solver
  Determining occupation numbers for Kohn-Sham eigenstates.
  | Chemical potential (Fermi level) in eV                 : -.23381996E+02
  | Error in electron count due to remaining E_F inaccuracy: 0.00000000E+00
  | Maximum occupation number of highest empty state:  0.00E+00

  Current spin moment of the entire structure :
  | N = N_up - N_down :    0.00
  | S                 :    0.00
  | J                 :    1.00

  Highest occupied state (VBM) at    -26.44446804 eV
  | Occupation number:      1.00000000
  | Spin channel:        1

  Lowest unoccupied state (CBM) at    -1.96800098 eV
  | Occupation number:      0.00000000
  | Spin channel:        1

  Overall HOMO-LUMO gap:     24.47646706 eV.

  Total energy components:
  | Sum of eigenvalues            :          -1.94512833 Ha         -52.92963495 eV
  | XC energy correction          :          -0.44894594 Ha         -12.21644064 eV
  | XC potential correction       :           0.57570418 Ha          15.66570779 eV
  | Free-atom electrostatic energy:           0.42318963 Ha          11.51557579 eV
  | Hartree energy correction     :           0.41233722 Ha          11.22026662 eV
  | van der Waals energy corr.    :           0.00000000 Ha           0.00000000 eV
  | Entropy correction            :           0.00000000 Ha           0.00000000 eV
  | ---------------------------
  | Total energy                  :          -0.98284324 Ha         -26.74452538 eV
  | Total energy, T -> 0          :          -0.98284324 Ha         -26.74452538 eV  <-- do not rely on this value for anything but (periodic) metals
  | Electronic free energy        :          -0.98284324 Ha         -26.74452538 eV

  Derived energy quantities:
  | Kinetic energy                :          -1.04691150 Ha         -28.48791123 eV
  | Electrostatic energy          :           0.51301419 Ha          13.95982649 eV
  | Energy correction for multipole
  | error in Hartree potential    :          -0.00018796 Ha          -0.00511460 eV
  | Sum of eigenvalues per atom                           :         -26.46481747 eV
  | Total energy (T->0) per atom                          :         -13.37226269 eV  <-- do not rely on this value for anything but (periodic) metals
  | Electronic free energy per atom                       :         -13.37226269 eV

  Self-consistency convergence accuracy:
  | Change of charge/spin density : 0.4205E+00 0.1251E-01
  | Change of sum of eigenvalues  : -.5799E+01 eV
  | Change of total energy        : -.1142E+00 eV

  End self-consistency iteration #    10       :  max(cpu_time)    wall_clock(cpu1)
  | Time for this iteration                    :        0.028 s           0.027 s
  | Charge density update                      :        0.007 s           0.005 s
  | Density mixing                             :        0.002 s           0.003 s
  | Hartree multipole update                   :        0.002 s           0.001 s
  | Hartree multipole summation                :        0.005 s           0.006 s
  | Integration                                :        0.010 s           0.009 s
  | Solution of K.-S. eqns.                    :        0.001 s           0.002 s
  | Total energy evaluation                    :        0.000 s           0.001 s
------------------------------------------------------------

------------------------------------------------------------
          Begin self-consistency iteration #   11

  Date     :  20220120, Time     :  153640.930
------------------------------------------------------------
  Evaluating new KS density.
  Integration grid: deviation in total charge (<rho> - N_e) =  -1.297090E-08
  | <rho_up-rho_dn> = N_up-N_dn =     -0.0022; <|rho_up-rho_dn|> =      0.2668
  Pulay mixing of updated and previous charge densities.

  Evaluating partitioned Hartree potential by multipole expansion.
  | Analytical far-field extrapolation by fixed multipoles:
  | Hartree multipole sum: apparent total charge =  -0.774174E-04
  Summing up the Hartree potential.
  Time summed over all CPUs for potential: real work        0.040 s, elapsed        0.046 s
  | RMS charge density error from multipole expansion :   0.460558E-02

  Integrating Hamiltonian matrix: batch-based integration.
  Time summed over all CPUs for integration: real work        0.069 s, elapsed        0.073 s

  Updating Kohn-Sham eigenvalues, eigenvectors, occupation numbers, and Fermi level.
  Solving generalized eigenproblem
  Solving real symmetric generalised eigenvalue problem by standard ScaLAPACK.
  Using Cholesky factor for transformation
  Using 1-stage real ELPA solver
  Solving real symmetric generalised eigenvalue problem by standard ScaLAPACK.
  Using Cholesky factor for transformation
  Using 1-stage real ELPA solver
  Determining occupation numbers for Kohn-Sham eigenstates.
  | Chemical potential (Fermi level) in eV                 : -.25131871E+02
  | Error in electron count due to remaining E_F inaccuracy: 0.00000000E+00
  | Maximum occupation number of highest empty state:  0.00E+00

  Current spin moment of the entire structure :
  | N = N_up - N_down :    0.00
  | S                 :    0.00
  | J                 :    1.00

  Highest occupied state (VBM) at    -27.98966584 eV
  | Occupation number:      1.00000000
  | Spin channel:        2

  Lowest unoccupied state (CBM) at    -2.31826642 eV
  | Occupation number:      0.00000000
  | Spin channel:        1

  Overall HOMO-LUMO gap:     25.67139942 eV.

  Total energy components:
  | Sum of eigenvalues            :          -2.06989869 Ha         -56.32480925 eV
  | XC energy correction          :          -0.47066912 Ha         -12.80755827 eV
  | XC potential correction       :           0.60355361 Ha          16.42352937 eV
  | Free-atom electrostatic energy:           0.42318963 Ha          11.51557579 eV
  | Hartree energy correction     :           0.42840276 Ha          11.65743229 eV
  | van der Waals energy corr.    :           0.00000000 Ha           0.00000000 eV
  | Entropy correction            :           0.00000000 Ha           0.00000000 eV
  | ---------------------------
  | Total energy                  :          -1.08542180 Ha         -29.53583008 eV
  | Total energy, T -> 0          :          -1.08542180 Ha         -29.53583008 eV  <-- do not rely on this value for anything but (periodic) metals
  | Electronic free energy        :          -1.08542180 Ha         -29.53583008 eV

  Derived energy quantities:
  | Kinetic energy                :          -1.54020754 Ha         -41.91117950 eV
  | Electrostatic energy          :           0.92545485 Ha          25.18290769 eV
  | Energy correction for multipole
  | error in Hartree potential    :          -0.00025253 Ha          -0.00687182 eV
  | Sum of eigenvalues per atom                           :         -28.16240463 eV
[...]
  | Change of sum of eigenvalues  : 0.2063E-02 eV
  | Change of total energy        : 0.1263E-07 eV

  End self-consistency iteration #    25       :  max(cpu_time)    wall_clock(cpu1)
  | Time for this iteration                    :        0.026 s           0.025 s
  | Charge density update                      :        0.006 s           0.005 s
  | Density mixing                             :        0.002 s           0.002 s
  | Hartree multipole update                   :        0.001 s           0.002 s
  | Hartree multipole summation                :        0.004 s           0.004 s
  | Integration                                :        0.009 s           0.009 s
  | Solution of K.-S. eqns.                    :        0.001 s           0.001 s
  | Total energy evaluation                    :        0.000 s           0.001 s
------------------------------------------------------------

------------------------------------------------------------
          Begin self-consistency iteration #   26

  Date     :  20220120, Time     :  153641.379
------------------------------------------------------------
  Evaluating new KS density.
  Integration grid: deviation in total charge (<rho> - N_e) =   1.141753E-12
  | <rho_up-rho_dn> = N_up-N_dn =      0.0000; <|rho_up-rho_dn|> =      0.0000
  Pulay mixing of updated and previous charge densities.

  Evaluating partitioned Hartree potential by multipole expansion.
  | Analytical far-field extrapolation by fixed multipoles:
  | Hartree multipole sum: apparent total charge =   0.384583E-05
  Summing up the Hartree potential.
  Time summed over all CPUs for potential: real work        0.032 s, elapsed        0.033 s
  | RMS charge density error from multipole expansion :   0.370044E-02

  Integrating Hamiltonian matrix: batch-based integration.
  Time summed over all CPUs for integration: real work        0.070 s, elapsed        0.074 s

  Updating Kohn-Sham eigenvalues, eigenvectors, occupation numbers, and Fermi level.
  Solving generalized eigenproblem
  Solving real symmetric generalised eigenvalue problem by standard ScaLAPACK.
  Using Cholesky factor for transformation
  Using 1-stage real ELPA solver
  Solving real symmetric generalised eigenvalue problem by standard ScaLAPACK.
  Using Cholesky factor for transformation
  Using 1-stage real ELPA solver
  Determining occupation numbers for Kohn-Sham eigenstates.
  | Chemical potential (Fermi level) in eV                 : -.11235821E+02
  | Error in electron count due to remaining E_F inaccuracy: 0.00000000E+00
  | Maximum occupation number of highest empty state:  0.00E+00

  Current spin moment of the entire structure :
  | N = N_up - N_down :    0.00
  | S                 :    0.00
  | J                 :    1.00

  Highest occupied state (VBM) at    -13.01232537 eV
  | Occupation number:      1.00000000
  | Spin channel:        2

  Lowest unoccupied state (CBM) at     1.23321524 eV
  | Occupation number:      0.00000000
  | Spin channel:        2

  Overall HOMO-LUMO gap:     14.24554061 eV.

  Total energy components:
  | Sum of eigenvalues            :          -0.95638834 Ha         -26.02465090 eV
  | XC energy correction          :          -0.86460088 Ha         -23.52698708 eV
  | XC potential correction       :           1.10898668 Ha          30.17706303 eV
  | Free-atom electrostatic energy:           0.42318963 Ha          11.51557579 eV
  | Hartree energy correction     :          -0.54053519 Ha         -14.70871094 eV
  | van der Waals energy corr.    :           0.00000000 Ha           0.00000000 eV
  | Entropy correction            :           0.00000000 Ha           0.00000000 eV
  | ---------------------------
  | Total energy                  :          -0.82934810 Ha         -22.56771010 eV
  | Total energy, T -> 0          :          -0.82934810 Ha         -22.56771010 eV  <-- do not rely on this value for anything but (periodic) metals
  | Electronic free energy        :          -0.82934810 Ha         -22.56771010 eV

  Derived energy quantities:
  | Kinetic energy                :           1.78973534 Ha          48.70117636 eV
  | Electrostatic energy          :          -1.75448255 Ha         -47.74189938 eV
  | Energy correction for multipole
  | error in Hartree potential    :           0.00033841 Ha           0.00920866 eV
  | Sum of eigenvalues per atom                           :         -13.01232545 eV
  | Total energy (T->0) per atom                          :         -11.28385505 eV  <-- do not rely on this value for anything but (periodic) metals
  | Electronic free energy per atom                       :         -11.28385505 eV

  Self-consistency convergence accuracy:
  | Change of charge/spin density : 0.2942E-06 0.1104E-06
  | Change of sum of eigenvalues  : 0.1081E-04 eV
  | Change of total energy        : 0.5921E-10 eV

  End self-consistency iteration #    26       :  max(cpu_time)    wall_clock(cpu1)
  | Time for this iteration                    :        0.026 s           0.025 s
  | Charge density update                      :        0.006 s           0.006 s
  | Density mixing                             :        0.002 s           0.002 s
  | Hartree multipole update                   :        0.001 s           0.001 s
  | Hartree multipole summation                :        0.004 s           0.004 s
  | Integration                                :        0.009 s           0.010 s
  | Solution of K.-S. eqns.                    :        0.001 s           0.001 s
  | Total energy evaluation                    :        0.000 s           0.000 s
------------------------------------------------------------

------------------------------------------------------------
          Begin self-consistency iteration #   27

  Date     :  20220120, Time     :  153641.410
------------------------------------------------------------
  Evaluating new KS density.
  Integration grid: deviation in total charge (<rho> - N_e) =   6.816769E-13
  | <rho_up-rho_dn> = N_up-N_dn =      0.0000; <|rho_up-rho_dn|> =      0.0000
  Pulay mixing of updated and previous charge densities.

  Evaluating partitioned Hartree potential by multipole expansion.
  | Analytical far-field extrapolation by fixed multipoles:
  | Hartree multipole sum: apparent total charge =   0.384612E-05
  Summing up the Hartree potential.
  Time summed over all CPUs for potential: real work        0.032 s, elapsed        0.033 s
  | RMS charge density error from multipole expansion :   0.370044E-02

  Integrating Hamiltonian matrix: batch-based integration.
  Time summed over all CPUs for integration: real work        0.070 s, elapsed        0.075 s

  Updating Kohn-Sham eigenvalues, eigenvectors, occupation numbers, and Fermi level.
  Solving generalized eigenproblem
  Solving real symmetric generalised eigenvalue problem by standard ScaLAPACK.
  Using Cholesky factor for transformation
  Using 1-stage real ELPA solver
  Solving real symmetric generalised eigenvalue problem by standard ScaLAPACK.
  Using Cholesky factor for transformation
  Using 1-stage real ELPA solver
  Determining occupation numbers for Kohn-Sham eigenstates.
  | Chemical potential (Fermi level) in eV                 : -.11235580E+02
  | Error in electron count due to remaining E_F inaccuracy: 0.00000000E+00
  | Maximum occupation number of highest empty state:  0.00E+00

  Current spin moment of the entire structure :
  | N = N_up - N_down :    0.00
  | S                 :    0.00
  | J                 :    1.00

  Highest occupied state (VBM) at    -13.01232311 eV
  | Occupation number:      1.00000000
  | Spin channel:        1

  Lowest unoccupied state (CBM) at     1.23414203 eV
  | Occupation number:      0.00000000
  | Spin channel:        1

  Overall HOMO-LUMO gap:     14.24646515 eV.

  Total energy components:
  | Sum of eigenvalues            :          -0.95638817 Ha         -26.02464631 eV
  | XC energy correction          :          -0.86460093 Ha         -23.52698824 eV
  | XC potential correction       :           1.10898673 Ha          30.17706441 eV
  | Free-atom electrostatic energy:           0.42318963 Ha          11.51557579 eV
  | Hartree energy correction     :          -0.54053537 Ha         -14.70871576 eV
  | van der Waals energy corr.    :           0.00000000 Ha           0.00000000 eV
  | Entropy correction            :           0.00000000 Ha           0.00000000 eV
  | ---------------------------
  | Total energy                  :          -0.82934810 Ha         -22.56771010 eV
  | Total energy, T -> 0          :          -0.82934810 Ha         -22.56771010 eV  <-- do not rely on this value for anything but (periodic) metals
  | Electronic free energy        :          -0.82934810 Ha         -22.56771010 eV

  Derived energy quantities:
  | Kinetic energy                :           1.78973527 Ha          48.70117446 eV
  | Electrostatic energy          :          -1.75448244 Ha         -47.74189632 eV
  | Energy correction for multipole
  | error in Hartree potential    :           0.00033841 Ha           0.00920867 eV
  | Sum of eigenvalues per atom                           :         -13.01232315 eV
  | Total energy (T->0) per atom                          :         -11.28385505 eV  <-- do not rely on this value for anything but (periodic) metals
  | Electronic free energy per atom                       :         -11.28385505 eV

  Self-consistency convergence accuracy:
  | Change of charge/spin density : 0.8618E-07 0.3825E-07
  | Change of sum of eigenvalues  : 0.4591E-05 eV
  | Change of total energy        : -.6254E-09 eV

  Writing Kohn-Sham eigenvalues.

  Spin-up eigenvalues:

  State    Occupation    Eigenvalue [Ha]    Eigenvalue [eV]
      1       1.00000          -0.478194          -13.01232
      2       0.00000           0.045354            1.23414
      3       0.00000           0.054961            1.49556
      4       0.00000           0.231742            6.30603
      5       0.00000           0.342098            9.30897
      6       0.00000           0.364430            9.91664
      7       0.00000           0.364430            9.91664
      8       0.00000           0.740292           20.14436
      9       0.00000           0.740292           20.14436
     10       0.00000           0.782272           21.28670
     11       0.00000           0.827647           22.52141

  Spin-down eigenvalues:

  State    Occupation    Eigenvalue [Ha]    Eigenvalue [eV]
      1       1.00000          -0.478194          -13.01232
      2       0.00000           0.045356            1.23419
      3       0.00000           0.054961            1.49558
      4       0.00000           0.231743            6.30605
      5       0.00000           0.342100            9.30902
      6       0.00000           0.364430            9.91664
      7       0.00000           0.364430            9.91664
      8       0.00000           0.740292           20.14436
      9       0.00000           0.740292           20.14436
     10       0.00000           0.782272           21.28671
     11       0.00000           0.827647           22.52141

  Current spin moment of the entire structure :
  | N = N_up - N_down :    0.00
  | S                 :    0.00
  | J                 :    1.00

  Highest occupied state (VBM) at    -13.01232311 eV
  | Occupation number:      1.00000000
  | Spin channel:        1

  Lowest unoccupied state (CBM) at     1.23414203 eV
  | Occupation number:      0.00000000
  | Spin channel:        1

  Overall HOMO-LUMO gap:     14.24646515 eV.

  Self-consistency cycle converged.

  End self-consistency iteration #    27       :  max(cpu_time)    wall_clock(cpu1)
  | Time for this iteration                    :        0.026 s           0.026 s
  | Charge density update                      :        0.007 s           0.005 s
  | Density mixing                             :        0.002 s           0.002 s
  | Hartree multipole update                   :        0.001 s           0.001 s
  | Hartree multipole summation                :        0.004 s           0.005 s
  | Integration                                :        0.009 s           0.009 s
  | Solution of K.-S. eqns.                    :        0.001 s           0.002 s
  | Total energy evaluation                    :        0.000 s           0.001 s
------------------------------------------------------------
  Obtaining max. number of non-zero basis functions in each batch .
  Evaluating KS electron density on previously omitted grid points.
  Evaluating non-empirical van der Waals correction (Tkatchenko/Scheffler 2009).
  Performing Hirshfeld analysis of fragment charges and moments.
  ----------------------------------------------------------------------
  | Atom     1: H
  |   Hirshfeld charge        :     -0.00000037
  |   Free atom volume        :     10.31539447
  |   Hirshfeld volume        :      3.35718655
  |   Hirshfeld spin moment   :     -0.00000003
  |   Hirshfeld dipole vector :     -0.00000000       0.00000000      -0.05085895
  |   Hirshfeld dipole moment :      0.05085895
  |   Hirshfeld second moments:      0.18357492       0.00000000       0.00000000
  |                                  0.00000000       0.18357492      -0.00000000
  |                                  0.00000000      -0.00000000       0.17663387
  ----------------------------------------------------------------------
  | Atom     2: H
  |   Hirshfeld charge        :     -0.00000037
  |   Free atom volume        :     10.31539447
  |   Hirshfeld volume        :      3.35718655
  |   Hirshfeld spin moment   :     -0.00000003
  |   Hirshfeld dipole vector :      0.00000000       0.00000000       0.05085895
  |   Hirshfeld dipole moment :      0.05085895
  |   Hirshfeld second moments:      0.18357492       0.00000000       0.00000000
  |                                  0.00000000       0.18357492      -0.00000000
  |                                  0.00000000      -0.00000000       0.17663387
  ----------------------------------------------------------------------


  Total energy components:
  | Sum of eigenvalues            :          -0.95638817 Ha         -26.02464631 eV
  | XC energy correction          :          -0.86460093 Ha         -23.52698824 eV
  | XC potential correction       :           1.10898673 Ha          30.17706441 eV
  | Free-atom electrostatic energy:           0.42318963 Ha          11.51557579 eV
  | Hartree energy correction     :          -0.54053537 Ha         -14.70871576 eV
  | van der Waals energy corr.    :          -0.00000050 Ha          -0.00001354 eV
  | Entropy correction            :           0.00000000 Ha           0.00000000 eV
  | ---------------------------
  | Total energy                  :          -0.82934860 Ha         -22.56772364 eV
  | Total energy, T -> 0          :          -0.82934860 Ha         -22.56772364 eV  <-- do not rely on this value for anything but (periodic) metals
  | Electronic free energy        :          -0.82934860 Ha         -22.56772364 eV

  Derived energy quantities:
  | Kinetic energy                :           1.78973527 Ha          48.70117446 eV
  | Electrostatic energy          :          -1.75448244 Ha         -47.74189632 eV
  | Energy correction for multipole
  | error in Hartree potential    :           0.00033841 Ha           0.00920867 eV
  | Sum of eigenvalues per atom                           :         -13.01232315 eV
  | Total energy (T->0) per atom                          :         -11.28386182 eV  <-- do not rely on this value for anything but (periodic) metals
  | Electronic free energy per atom                       :         -11.28386182 eV
  Timings for VdW correction (Tkatchenko-Scheffler 2009 or later):
  | CPU time:        0.003 s, Wall clock time:        0.003 s.

  Energy and forces in a compact form:
  | Total energy uncorrected      :         -0.225677236434645E+02 eV
  | Total energy corrected        :         -0.225677236434645E+02 eV  <-- do not rely on this value for anything but (periodic) metals
  | Electronic free energy        :         -0.225677236434645E+02 eV

  ------------------------------------ 
  Start decomposition of the XC Energy 
  ------------------------------------ 
  Hartree-Fock part   :          0.000000000 Ha              0.000000000 eV
  ------------------------------------ 
  X Energy            :         -0.820803592 Ha            -22.335202141 eV
  C Energy GGA        :         -0.043797334 Ha             -1.191786097 eV
  Total XC Energy     :         -0.864600926 Ha            -23.526988238 eV
  LDA X and C from self-consistent density 
  X Energy LDA        :         -0.718581402 Ha            -19.553594821 eV
  C Energy LDA        :         -0.103833767 Ha             -2.825460548 eV
  ------------------------------------ 
  End decomposition of the XC Energy 
  ------------------------------------ 

------------------------------------------------------------------------------
  Final output of selected total energy values:

  The following output summarizes some interesting total energy values
  at the end of a run (AFTER all relaxation, molecular dynamics, etc.).

  | Total energy of the DFT / Hartree-Fock s.c.f. calculation      :            -22.567723643 eV
  | Final zero-broadening corrected energy (caution - metals only) :            -22.567723643 eV
  | For reference only, the value of 1 Hartree used in FHI-aims is :             27.211384500 eV

  Before relying on these values, please be sure to understand exactly which
  total energy value is referred to by a given number. Different objects may
  all carry the same name 'total energy'. Definitions:

  Total energy of the DFT / Hartree-Fock s.c.f. calculation:
  | Note that this energy does not include ANY quantities calculated after the
  | s.c.f. cycle, in particular not ANY RPA, MP2, etc. many-body perturbation terms.

  Final zero-broadening corrected energy:
  | For metallic systems only, a broadening of the occupation numbers at the Fermi
  | level can be extrapolated back to zero broadening by an electron-gas inspired
  | formula. For all systems that are not real metals, this value can be
  | meaningless and should be avoided.

------------------------------------------------------------------------------

------------------------------------------------------------
          Leaving FHI-aims.
          Date     :  20220120, Time     :  153641.447

          Computational steps:
          | Number of self-consistency cycles          :           27

          Detailed time accounting                     :  max(cpu_time)    wall_clock(cpu1)
          | Total time                                 :        0.916 s           1.014 s
          | Preparation time                           :        0.082 s           0.082 s
          | Grid partitioning                          :        0.007 s           0.007 s
          | Preloading free-atom quantities on grid    :        0.004 s           0.004 s
          | Free-atom superposition energy             :        0.003 s           0.002 s
          | Total time for integrations                :        0.269 s           0.267 s
          | Total time for solution of K.-S. equations :        0.046 s           0.051 s
          | Total time for density update              :        0.177 s           0.157 s
          | Total time for mixing                      :        0.048 s           0.051 s
          | Total time for Hartree multipole update    :        0.037 s           0.037 s
          | Total time for Hartree multipole sum       :        0.129 s           0.134 s
          | Total time for total energy evaluation     :        0.005 s           0.020 s
          | Total time for scaled ZORA corrections     :        0.000 s           0.000 s
          | Total time for vdW correction              :        0.003 s           0.003 s

          Have a nice day.
------------------------------------------------------------
