  MPI-parallelism will be employed.
------------------------------------------------------------
          Invoking FHI-aims ...
          Version 052014
          Git rev. (modified): 096c982 Merge branch master of fhiaims:/pub/localo[...]
          Compiled on 2016/12/16 at 15:22:01 on host login02.hpc.iitd.ac.in.

          When using FHI-aims, please cite the following reference:

          Volker Blum, Ralf Gehrke, Felix Hanke, Paula Havu,
          Ville Havu, Xinguo Ren, Karsten Reuter, and Matthias Scheffler,
          'Ab Initio Molecular Simulations with Numeric Atom-Centered Orbitals: FHI-aims',
          Computer Physics Communications 180, 2175-2196 (2009)

          For any questions about FHI-aims, please visit the aimsclub website
          with its forums and wiki. Contributions to both the forums and the
          wiki are warmly encouraged - they are for you, and everyone is welcome there.

------------------------------------------------------------

  Date     :  20220120, Time     :  153123.765
  Time zero on CPU 1             :   0.125820000000000E-01  s.
  Internal wall clock time zero  :           411924683.765  s.

  Using        8 parallel tasks.
  Task        0 on host csky019 reporting.
  Task        1 on host csky019 reporting.
  Task        2 on host csky019 reporting.
  Task        3 on host csky019 reporting.
  Task        4 on host csky019 reporting.
  Task        5 on host csky019 reporting.
  Task        6 on host csky019 reporting.
  Task        7 on host csky019 reporting.

  Performing system and environment tests:
  | Environment variable OMP_NUM_THREADS correctly set to 1.
  | Stacksize not measured: no C compiler
  | Checking for scalapack...
  | Testing pdtran()...
  | All pdtran() tests passed.

  Obtaining array dimensions for all initial allocations:
  
  -----------------------------------------------------------------------
  Parsing control.in (first pass over file, find array dimensions only).
  The contents of control.in will be repeated verbatim below
  unless switched off by setting 'verbatim_writeout .false.' .
  in the first line of control.in .
  -----------------------------------------------------------------------
  
    xc               pbe
    spin             collinear
    default_initial_moment hund
    relativistic     atomic_zora scalar 1e-9
    occupation_type  gaussian 0.001
    charge        0
    vdw_correction_hirshfeld
    KS_method        scalapack_fast
    mixer            pulay
    charge_mix_param  0.4
    spin_mix_param    0.6
    sc_accuracy_rho  1E-4
    sc_accuracy_eev  1E-5
    sc_accuracy_etot 1E-5
    sc_iter_limit    100
    empty_states     10
  ################################################################################
  #
  #  FHI-aims code project
  # Volker Blum, Fritz Haber Institute Berlin, 2009
  #
  #  Suggested "tight" defaults for H atom (to be pasted into control.in file)
  #
  ################################################################################
    species        H
  #     global species definitions
      nucleus             1
      mass                1.00794
  #
      l_hartree           6
  #
      cut_pot             4.0  2.0  1.0
      basis_dep_cutoff    1e-4
  #
      radial_base         24 7.0
      radial_multiplier   2
      angular_grids       specified
        division   0.1930   50
        division   0.3175  110
        division   0.4293  194
        division   0.5066  302
        division   0.5626  434
  #      division   0.5922  590
  #      division   0.6227  974
  #      division   0.6868 1202
  #      outer_grid  770
        outer_grid  434
  ################################################################################
  #
  #  Definition of "minimal" basis
  #
  ################################################################################
  #     valence basis states
      valence      1  s   1.
  #     ion occupancy
      ion_occ      1  s   0.5
  ################################################################################
  #
  #  Suggested additional basis functions. For production calculations,
  #  uncomment them one after another (the most important basis functions are
  #  listed first).
  #
  #  Basis constructed for dimers: 0.5 A, 0.7 A, 1.0 A, 1.5 A, 2.5 A
  #
  ################################################################################
  #  "First tier" - improvements: -1014.90 meV to -62.69 meV
       hydro 2 s 2.1
       hydro 2 p 3.5
  #  "Second tier" - improvements: -12.89 meV to -1.83 meV
       hydro 1 s 0.85
       hydro 2 p 3.7
       hydro 2 s 1.2
       hydro 3 d 7
  #  "Third tier" - improvements: -0.25 meV to -0.12 meV
  #     hydro 4 f 11.2
  #     hydro 3 p 4.8
  #     hydro 4 d 9
  #     hydro 3 s 3.2
  ################################################################################
  #
  # For methods that use the localized form of the "resolution of identity" for
  # the two-electron Coulomb operator (RI_method LVL), particularly Hartree-Fock and
  # hybrid density functional calculations, the highest accuracy can be obtained by
  # uncommenting the line beginning with "for_aux"  below, thus adding an extra g radial
  # function to the construction of the product basis set for the expansion.
  # See Ref. New J. Phys. 17, 093020 (2015) for more information, particularly Figs. 1 and 6.
  #
  ################################################################################
  #
  # for_aux hydro 5 g 6.0
  
  -----------------------------------------------------------------------
  Completed first pass over input file control.in .
  -----------------------------------------------------------------------
  
  
  -----------------------------------------------------------------------
  Parsing geometry.in (first pass over file, find array dimensions only).
  The contents of geometry.in will be repeated verbatim below
  unless switched off by setting 'verbatim_writeout .false.' .
  in the first line of geometry.in .
  -----------------------------------------------------------------------
  
  atom 0 0 0 H
  atom 0 0 0.48 H
  
  -----------------------------------------------------------------------
  Completed first pass over input file geometry.in .
  -----------------------------------------------------------------------
  

  Basic array size parameters:
  | Number of species                 :        1
  | Number of atoms                   :        2
  | Max. basis fn. angular momentum   :        2
  | Max. atomic/ionic basis occupied n:        1
  | Max. number of basis fn. types    :        2
  | Max. radial fns per species/type  :        6
  | Max. logarithmic grid size        :     1131
  | Max. radial integration grid size :       49
  | Max. angular integration grid size:      434
  | Max. angular grid division number :        8
  | Radial grid for Hartree potential :     1131
  | Number of spin channels           :        2

------------------------------------------------------------
          Reading file control.in.
------------------------------------------------------------
  XC: Using PBE gradient-corrected functionals.
  Spin treatment: Spin density functional theory - collinear spins.
  Initial spin moment per atom set according to Hund's rules.
  Scalar relativistic treatment of kinetic energy: on-site free-atom approximation to ZORA.
  Occupation type: Gaussian broadening, width =   0.100000E-02 eV.
  Charge =   0.000000E+00: Neutral system requested explicitly.
  Using non-empirical van der Waals correction (Hirshfeld partitioning):
  Kohn-Sham eigenvalues and eigenfunctions calculated by the ELPA eigensolver library.
  Using pulay charge density mixing.
  Charge density mixing - mixing parameter:     0.4000
  Spin density mixing - mixing parameter:     0.6000
  Convergence accuracy of self-consistent charge density: 0.1000E-03
  Convergence accuracy of sum of eigenvalues: 0.1000E-04
  Convergence accuracy of total energy: 0.1000E-04
  Maximum number of s.-c. iterations  :   100
  Number of empty states per atom:       10
 
  Reading configuration options for species H                   .
  | Found nuclear charge :   1.0000
  | Found atomic mass :    1.00794000000000      amu
  | Found l_max for Hartree potential  :   6
  | Found cutoff potl. onset [A], width [A], scale factor :    4.00000    2.00000    1.00000
  | Threshold for basis-dependent cutoff potential is   0.100000E-03
  | Found data for basic radial integration grid :    24 points, outermost radius =    7.000 A
  | Found multiplier for basic radial grid :   2
  | Found angular grid specification: user-specified.
  | Specified grid contains     6 separate shells.
  | Check grid settings after all constraints further below.
  | Found free-atom valence shell :  1 s   1.000
  | No ionic wave fns used. Skipping ion_occ.
  | Found hydrogenic basis function :  2 s   2.100
  | Found hydrogenic basis function :  2 p   3.500
  | Found hydrogenic basis function :  1 s   0.850
  | Found hydrogenic basis function :  2 p   3.700
  | Found hydrogenic basis function :  2 s   1.200
  | Found hydrogenic basis function :  3 d   7.000
  Species H                   : Missing cutoff potential type.
  Defaulting to exp(1/x)/(1-x)^2 type cutoff potential.
  Species H : No 'logarithmic' tag. Using default grid for free atom:
  | Default logarithmic grid data [bohr] : 0.1000E-03 0.1000E+03 0.1012E+01
  Species H : On-site basis accuracy parameter (for Gram-Schmidt orthonormalisation) not specified.
  Using default value basis_acc =  0.1000000E-03.
  Species H                   : Using default innermost maximum threshold i_radial=  2 for radial functions.
  Species H                   : Default cutoff onset for free atom density etc. : 0.40000000E+01 AA.
  Species H                   : Basic radial grid will be enhanced according to radial_multiplier =   2, to contain    49 grid points.
 
  Finished reading input file 'control.in'. Consistency checks are next.
 
  Target number of points in a grid batch is not set. Defaulting to  100
  Method for grid partitioning is not set. Defaulting to parallel hash+maxmin partitioning.
  Batch size limit is not set. Defaulting to    200
  By default, will store active basis functions for each batch.
  If in need of memory, prune_basis_once .false. can be used to disable this option.
  communication_type for Hartree potential was not specified.
  Defaulting to calc_hartree .
  Pulay mixer: Number of relevant iterations not set.
  Defaulting to    8 iterations.
  Pulay mixer: Number of initial linear mixing iterations not set.
  Defaulting to    0 iterations.
  Work space size for distributed Hartree potential not set.
  Defaulting to   0.200000E+03 MB.
  Algorithm-dependent basis array size parameters:
  | n_max_pulay                         :        8
  Calculation of forces was not defined in control.in. No forces will be calculated.
  Geometry relaxation not requested: no relaxation will be performed.
  No accuracy limit for integral partition fn. given. Defaulting to 0.1000E-14.
  No threshold value for u(r) in integrations given. Defaulting to 0.1000E-05.
  No accuracy for occupation numbers given. Defaulting to 0.1000E-07.
  No threshold value for occupation numbers given. Defaulting to 0.0000E+00.
  No accuracy for fermi level given. Defaulting to 0.1000E-19.
  Maximum # of iterations to find E_F not set. Defaulting to  200.
  Will not use alltoall communication since running on < 1024 CPUs.
  Threshold for basis singularities not set.
  Default threshold for basis singularities: 0.1000E-04
  partition_type (choice of integration weights) for integrals was not specified.
  | Using a version of the partition function of Stratmann and coworkers ('stratmann_smoother').
  | At each grid point, the set of atoms used to build the partition table is smoothly restricted to
  | only those atoms whose free-atom density would be non-zero at that grid point.
  Partitioning for Hartree potential was not defined. Using partition_type for integrals.
  | Adjusted default value of keyword multip_moments_threshold to:       0.10000000E-11
  | This value may affect high angular momentum components of the Hartree potential in periodic systems.
  No q(lm)/r^(l+1) cutoff set for long-range Hartree potential.
  | Using default value of  0.100000E-09 .
  | Verify using the multipole_threshold keyword.
  Defaulting to new monopole extrapolation.
  Density update method: automatic selection selected.
------------------------------------------------------------


------------------------------------------------------------
          Reading geometry description geometry.in.
------------------------------------------------------------
  Input structure read successfully.
  The structure contains        2 atoms,  and a total of          2.000 electrons.

  Input geometry:
  | No unit cell requested.
  | Atomic structure:
  |       Atom                x [A]            y [A]            z [A]
  |    1: Species H              0.000000         0.000000         0.000000
  |    2: Species H              0.000000         0.000000         0.480000
  |

  | The smallest distance between any two atoms is         0.48000000 AA.
  |
  | The first atom of this pair is atom number                      1 .
  | The second atom of this pair is atom number                     2 .

  Initial moments and charges:
  |  Atom   Moment         Charge        Species
  |     1  (Hund's rule)   0.000000E+00   H
  |     2  (Hund's rule)   0.000000E+00   H

  Structure-dependent array size parameters: 
  | Number of distinct atom types in initial rho :        1
  | Maximum number of distinct radial functions  :        7
  | Maximum number of basis functions            :       30
  | Number of Kohn-Sham states (occupied + empty):       11
------------------------------------------------------------

------------------------------------------------------------
          Preparing all fixed parts of the calculation.
------------------------------------------------------------
  Determining machine precision:
    2.225073858507201E-308
  Setting up grids for atomic and cluster calculations.

  Creating wave function, potential, and density for free atoms.

  Species: H

  List of occupied orbitals and eigenvalues:
    n    l              occ      energy [Ha]    energy [eV]
    1    0           1.0000        -0.238386        -6.4868

  Spin-polarized or charged system:
  Charge density initialized according to selected moments and charges.

  Creating spin-polarized density from free atoms.

  Species: H
  Charge:   0.000000
  applying Hund's rules ...

  List of occupied orbitals and eigenvalues:
    n    l      energy [Ha]    energy [eV]    occupation
  Spin-up
    1    0        -0.278991        -7.5917     1.00000000
  Spin-down
    1    0         0.090850         2.4721     0.00000000

  Creating fixed part of basis set: Ionic, confined, hydrogenic.
 
  H                    hydrogenic:
 
  List of hydrogenic basis orbitals: 
    n    l      effective z      eigenvalue [eV]  inner max. [A]     outer max. [A]     outer radius [A]   
    2    0         2.100000       -14.9965           0.193243           1.317208           5.373006
    2    1         3.500000       -41.6672           0.602369           0.602369           4.056063
    1    0         0.850000        -9.8292           0.624871           0.624871           5.373006
    2    1         3.700000       -46.5653           0.573622           0.573622           3.910002
    2    0         1.200000        -4.5995           0.334980           2.228188           5.505995
    3    2         7.000000       -74.0753           0.680699           0.680699           3.769201
 

  Adding cutoff potential to free-atom effective potential.
  Creating atomic-like basis functions for current effective potential.

  Species H                   :

  List of atomic basis orbitals and eigenvalues:
    n    l      energy [Ha]    energy [eV]    outer radius [A]
    1    0        -0.238386        -6.4868       5.373006

  Assembling full basis from fixed parts.
  | Species H :   atomic orbital   1 s accepted.
  | Species H :    hydro orbital   2 s accepted.
  | Species H :    hydro orbital   1 s accepted.
  | Species H :    hydro orbital   2 s accepted.
  | Species H :    hydro orbital   2 p accepted.
  | Species H :    hydro orbital   2 p accepted.
  | Species H :    hydro orbital   3 d accepted.
 
  Basis size parameters after reduction:
  | Total number of radial functions:        7
  | Total number of basis functions :       30
 
  Testing on-site integration grid accuracy.
  |  Species  Function  <phi|h_atom|phi> (log., in eV)  <phi|h_atom|phi> (rad., in eV)
           1        1                 -6.4870767962                 -6.4871688290
           1        2                 13.5032046589                 13.5028982997
           1        3                 32.8195184817                 32.8119941656
           1        4                 33.8513856511                 33.7670005767 ***
           1        5                 28.8544614965                 28.8544615203
           1        6                 59.6326952547                 59.6327656460
           1        7                 60.2719308513                 60.2719305949
 * Note: Onsite integrals marked "***" above are less accurate than
 * onsite_accuracy_threshold =    0.03000 eV. Usually, this is harmless.
 * When in doubt, tighten the "radial" and/or "radial_multiplier" flags to check.

  Preparing densities etc. for the partition functions (integrals / Hartree potential).

  Preparations completed.
  max(cpu_time)          :      0.081 s.
  Wall clock time (cpu1) :      0.081 s.
------------------------------------------------------------

------------------------------------------------------------
          Begin self-consistency loop: Initialization.

          Date     :  20220120, Time     :  153123.925
------------------------------------------------------------

  Initializing index lists of integration centers etc. from given atomic structure:
  | Number of centers in hartree potential         :         2
  | Number of centers in hartree multipole         :         2
  | Number of centers in electron density summation:         2
  | Number of centers in basis integrals           :         2
  | Number of centers in integrals                 :         2
  Using modified Scalapack Eigenvalue solver (ELPA)
  * Using 8 tasks for Scalapack Eigenvalue solver.
  Detailed listing of tasks and assigned k-points:
  (for non-periodic systems, the "k-point" denotes an internal label only)
   Task     0 k-point     1 on csky019
   Task     1 k-point     1 on csky019
   Task     2 k-point     1 on csky019
   Task     3 k-point     1 on csky019
   Task     4 k-point     1 on csky019
   Task     5 k-point     1 on csky019
   Task     6 k-point     1 on csky019
   Task     7 k-point     1 on csky019
  Tasks:     8 split into      4 X      2 BLACS grid
  Calculating blocksize based on n_basis =           30 max_nprow =            4 max_npcol =            2
  Scalapack blocksize set to:            4
  Required Scalapack workspace - INTEGER:            1 REAL:             1
  Partitioning the integration grid into batches with parallel hashing+maxmin method.
  | Number of batches:      446
  | Maximal batch size:     197
  | Minimal batch size:      49
  | Average batch size:      64.798
  | Standard deviation of batch sizes:      18.063

  Integration load balanced across     8 MPI tasks.
  Work distribution over tasks is as follows:
  Task     0 has       3619 integration points.
  Task     1 has       3610 integration points.
  Task     2 has       3581 integration points.
  Task     3 has       3589 integration points.
  Task     4 has       3589 integration points.
  Task     5 has       3682 integration points.
  Task     6 has       3588 integration points.
  Task     7 has       3642 integration points.
  Initializing partition tables, free-atom densities, potentials, etc. across the integration grid (initialize_grid_storage).
  | initialize_grid_storage: Actual outermost partition radius vs. multipole_radius_free
  | (-- VB: in principle, multipole_radius_free should be larger, hence this output)
  | Species        1: outer_partition_radius =              6.000000000000000 AA, multipole_radius_free =              6.071692442739658 AA.
  | Original list of interatomic distances with           2 x          2 entries is created.
  | Net number of integration points:    28900
  | of which are non-zero points    :    25940
  Obtaining max. number of non-zero basis functions in each batch (get_n_compute_maxes).
  | Maximal number of non-zero basis functions:       30 in task     0
  | Maximal number of non-zero basis functions:       30 in task     1
  | Maximal number of non-zero basis functions:       30 in task     2
  | Maximal number of non-zero basis functions:       30 in task     3
  | Maximal number of non-zero basis functions:       30 in task     4
  | Maximal number of non-zero basis functions:       30 in task     5
  | Maximal number of non-zero basis functions:       30 in task     6
  | Maximal number of non-zero basis functions:       30 in task     7
  Selecting the method for density update.
  Loop over occupied states selected for charge density update.
  Integrating Hamiltonian matrix: batch-based integration.
  Time summed over all CPUs for integration: real work        0.080 s, elapsed        0.087 s
  Integrating overlap matrix.
  Time summed over all CPUs for integration: real work        0.020 s, elapsed        0.025 s
  Deallocating overlap matrix.

  Updating Kohn-Sham eigenvalues, eigenvectors, occupation numbers, and Fermi level.
  Solving generalized eigenproblem
  Solving real symmetric generalised eigenvalue problem by standard ScaLAPACK.
  Transforming overlap matrix with ScaLAPACK and checking for singularities.
  : Overlap matrix is nonsingular, using Cholesky decomposition
  | Lowest eigenvalue:  0.690226E-04
  Factoring overlap matrix with Cholesky decomposition
  Using Cholesky factor for transformation
  Using 1-stage real ELPA solver
  Solving real symmetric generalised eigenvalue problem by standard ScaLAPACK.
  Using Cholesky factor for transformation
  Using 1-stage real ELPA solver
  Determining occupation numbers for Kohn-Sham eigenstates.
  | Chemical potential (Fermi level) in eV                 : -.15249546E+00
  | Error in electron count due to remaining E_F inaccuracy: 0.00000000E+00
  | Maximum occupation number of highest empty state:  0.00E+00

  Writing Kohn-Sham eigenvalues.

  Spin-up eigenvalues:

  State    Occupation    Eigenvalue [Ha]    Eigenvalue [eV]
      1       1.00000          -0.746523          -20.31393
      2       1.00000          -0.012560           -0.34179
      3       0.00000          -0.002531           -0.06886
      4       0.00000           0.135088            3.67593
      5       0.00000           0.203017            5.52437
      6       0.00000           0.203017            5.52437
      7       0.00000           0.266794            7.25982
      8       0.00000           0.543071           14.77772
      9       0.00000           0.680371           18.51382
     10       0.00000           0.680371           18.51382
     11       0.00000           0.708356           19.27536

  Spin-down eigenvalues:

  State    Occupation    Eigenvalue [Ha]    Eigenvalue [eV]
      1       0.00000           0.099189            2.69907
      2       0.00000           0.112110            3.05067
      3       0.00000           0.504584           13.73043
      4       0.00000           0.527648           14.35803
      5       0.00000           1.140161           31.02536
      6       0.00000           1.187828           32.32243
      7       0.00000           1.187828           32.32243
      8       0.00000           1.435068           39.05019
      9       0.00000           1.435068           39.05019
     10       0.00000           1.549471           42.16325
     11       0.00000           1.588253           43.21857

  Current spin moment of the entire structure :
  | N = N_up - N_down :    2.00
  | S                 :    1.00
  | J                 :    3.00

  Highest occupied state (VBM) at     -0.34178653 eV
  | Occupation number:      1.00000000
  | Spin channel:        1

  Lowest unoccupied state (CBM) at    -0.06886091 eV
  | Occupation number:      0.00000000
  | Spin channel:        1

  Overall HOMO-LUMO gap:      0.27292562 eV.
  Calculating total energy contributions from superposition of free atom densities.

  Total energy components:
  | Sum of eigenvalues            :          -0.75908347 Ha         -20.65571219 eV
  | XC energy correction          :          -0.71482038 Ha         -19.45125229 eV
  | XC potential correction       :           0.92297646 Ha          25.11546738 eV
  | Free-atom electrostatic energy:          -0.00729799 Ha          -0.19858839 eV
  | Hartree energy correction     :           0.00000000 Ha           0.00000000 eV
  | van der Waals energy corr.    :           0.00000000 Ha           0.00000000 eV
  | Entropy correction            :           0.00000000 Ha           0.00000000 eV
  | ---------------------------
  | Total energy                  :          -0.55822538 Ha         -15.19008549 eV
  | Total energy, T -> 0          :          -0.55822538 Ha         -15.19008549 eV  <-- do not rely on this value for anything but (periodic) metals
  | Electronic free energy        :          -0.55822538 Ha         -15.19008549 eV

  Derived energy quantities:
  | Kinetic energy                :           1.28666742 Ha          35.01200190 eV
  | Electrostatic energy          :          -1.13007242 Ha         -30.75083510 eV
  | Energy correction for multipole
  | error in Hartree potential    :           0.00000000 Ha           0.00000000 eV
  | Sum of eigenvalues per atom                           :         -10.32785609 eV
  | Total energy (T->0) per atom                          :          -7.59504274 eV  <-- do not rely on this value for anything but (periodic) metals
  | Electronic free energy per atom                       :          -7.59504274 eV
  Initialize hartree_potential_storage
  Max. number of atoms included in rho_multipole:            2

  End scf initialization - timings             :  max(cpu_time)    wall_clock(cpu1)
  | Time for scf. initialization               :        0.041 s           0.041 s
  | Boundary condition initialization          :        0.000 s           0.000 s
  | Integration                                :        0.014 s           0.015 s
  | Solution of K.-S. eqns.                    :        0.007 s           0.007 s
  | Grid partitioning                          :        0.007 s           0.007 s
  | Preloading free-atom quantities on grid    :        0.004 s           0.004 s
  | Free-atom superposition energy             :        0.002 s           0.002 s
  | Total energy evaluation                    :        0.000 s           0.001 s
------------------------------------------------------------

------------------------------------------------------------
          Begin self-consistency iteration #    1

  Date     :  20220120, Time     :  153123.966
------------------------------------------------------------
  Evaluating new KS density.
  Integration grid: deviation in total charge (<rho> - N_e) =   9.603038E-07
  | <rho_up-rho_dn> = N_up-N_dn =      2.0000; <|rho_up-rho_dn|> =      2.2444
  Pulay mixing of updated and previous charge densities.

  Evaluating partitioned Hartree potential by multipole expansion.
  | Analytical far-field extrapolation by fixed multipoles:
  | Hartree multipole sum: apparent total charge =  -0.110960E-05
  Summing up the Hartree potential.
  Time summed over all CPUs for potential: real work        0.033 s, elapsed        0.034 s
  | RMS charge density error from multipole expansion :   0.824753E-03

  Integrating Hamiltonian matrix: batch-based integration.
  Time summed over all CPUs for integration: real work        0.065 s, elapsed        0.069 s

  Updating Kohn-Sham eigenvalues, eigenvectors, occupation numbers, and Fermi level.
  Solving generalized eigenproblem
  Solving real symmetric generalised eigenvalue problem by standard ScaLAPACK.
  Using Cholesky factor for transformation
  Using 1-stage real ELPA solver
  Solving real symmetric generalised eigenvalue problem by standard ScaLAPACK.
  Using Cholesky factor for transformation
  Using 1-stage real ELPA solver
  Determining occupation numbers for Kohn-Sham eigenstates.
  | Chemical potential (Fermi level) in eV                 : -.77139863E+01
  | Error in electron count due to remaining E_F inaccuracy: 0.00000000E+00
  | Maximum occupation number of highest empty state:  0.00E+00

  Writing Kohn-Sham eigenvalues.

  Spin-up eigenvalues:

  State    Occupation    Eigenvalue [Ha]    Eigenvalue [eV]
      1       1.00000          -0.585807          -15.94063
      2       0.00000           0.060170            1.63732
      3       0.00000           0.064109            1.74450
      4       0.00000           0.183168            4.98427
      5       0.00000           0.213033            5.79692
      6       0.00000           0.213033            5.79692
      7       0.00000           0.330357            8.98948
      8       0.00000           0.603454           16.42083
      9       0.00000           0.726642           19.77294
     10       0.00000           0.726642           19.77294
     11       0.00000           0.798527           21.72903

  Spin-down eigenvalues:

  State    Occupation    Eigenvalue [Ha]    Eigenvalue [eV]
      1       1.00000          -0.384304          -10.45744
      2       0.00000           0.076367            2.07804
      3       0.00000           0.086732            2.36011
      4       0.00000           0.245824            6.68921
      5       0.00000           0.322086            8.76439
      6       0.00000           0.322086            8.76439
      7       0.00000           0.381873           10.39130
      8       0.00000           0.711807           19.36925
      9       0.00000           0.806533           21.94688
     10       0.00000           0.806533           21.94688
     11       0.00000           0.872459           23.74081

  Current spin moment of the entire structure :
  | N = N_up - N_down :    0.00
  | S                 :    0.00
  | J                 :    1.00

  Highest occupied state (VBM) at    -10.45744343 eV
  | Occupation number:      1.00000000
  | Spin channel:        2

  Lowest unoccupied state (CBM) at     1.63731502 eV
  | Occupation number:      0.00000000
  | Spin channel:        1

  Overall HOMO-LUMO gap:     12.09475846 eV.

  Total energy components:
  | Sum of eigenvalues            :          -0.97011119 Ha         -26.39806855 eV
  | XC energy correction          :          -0.45830015 Ha         -12.47098172 eV
  | XC potential correction       :           0.58799571 Ha          16.00017723 eV
  | Free-atom electrostatic energy:          -0.00729799 Ha          -0.19858839 eV
  | Hartree energy correction     :           0.05364379 Ha           1.45972167 eV
  | van der Waals energy corr.    :           0.00000000 Ha           0.00000000 eV
  | Entropy correction            :           0.00000000 Ha           0.00000000 eV
  | ---------------------------
  | Total energy                  :          -0.79406984 Ha         -21.60773977 eV
  | Total energy, T -> 0          :          -0.79406984 Ha         -21.60773977 eV  <-- do not rely on this value for anything but (periodic) metals
  | Electronic free energy        :          -0.79406984 Ha         -21.60773977 eV

  Derived energy quantities:
  | Kinetic energy                :           0.86968268 Ha          23.66526983 eV
  | Electrostatic energy          :          -1.20545237 Ha         -32.80202788 eV
  | Energy correction for multipole
  | error in Hartree potential    :          -0.00009307 Ha          -0.00253265 eV
  | Sum of eigenvalues per atom                           :         -13.19903428 eV
  | Total energy (T->0) per atom                          :         -10.80386988 eV  <-- do not rely on this value for anything but (periodic) metals
  | Electronic free energy per atom                       :         -10.80386988 eV

  Self-consistency convergence accuracy:
  | Change of charge/spin density : 0.8953E-01 0.8953E-01
  | Change of sum of eigenvalues  : -.5742E+01 eV
  | Change of total energy        : -.6418E+01 eV

  End self-consistency iteration #     1       :  max(cpu_time)    wall_clock(cpu1)
  | Time for this iteration                    :        0.026 s           0.026 s
  | Charge density update                      :        0.006 s           0.007 s
  | Density mixing                             :        0.001 s           0.000 s
  | Hartree multipole update                   :        0.001 s           0.002 s
  | Hartree multipole summation                :        0.005 s           0.005 s
  | Integration                                :        0.009 s           0.008 s
  | Solution of K.-S. eqns.                    :        0.001 s           0.002 s
  | Total energy evaluation                    :        0.000 s           0.001 s
------------------------------------------------------------

------------------------------------------------------------
          Begin self-consistency iteration #    2

  Date     :  20220120, Time     :  153123.993
------------------------------------------------------------
  Evaluating new KS density.
  Integration grid: deviation in total charge (<rho> - N_e) =   5.761822E-07
  | <rho_up-rho_dn> = N_up-N_dn =     -2.0000; <|rho_up-rho_dn|> =      2.0000
  Pulay mixing of updated and previous charge densities.

  Evaluating partitioned Hartree potential by multipole expansion.
  | Analytical far-field extrapolation by fixed multipoles:
  | Hartree multipole sum: apparent total charge =  -0.105332E-05
  Summing up the Hartree potential.
  Time summed over all CPUs for potential: real work        0.032 s, elapsed        0.033 s
  | RMS charge density error from multipole expansion :   0.794425E-03

  Integrating Hamiltonian matrix: batch-based integration.
  Time summed over all CPUs for integration: real work        0.066 s, elapsed        0.069 s

  Updating Kohn-Sham eigenvalues, eigenvectors, occupation numbers, and Fermi level.
  Solving generalized eigenproblem
  Solving real symmetric generalised eigenvalue problem by standard ScaLAPACK.
  Using Cholesky factor for transformation
  Using 1-stage real ELPA solver
  Solving real symmetric generalised eigenvalue problem by standard ScaLAPACK.
  Using Cholesky factor for transformation
  Using 1-stage real ELPA solver
  Determining occupation numbers for Kohn-Sham eigenstates.
  | Chemical potential (Fermi level) in eV                 : -.11329772E+02
  | Error in electron count due to remaining E_F inaccuracy: 0.00000000E+00
  | Maximum occupation number of highest empty state:  0.00E+00

  Current spin moment of the entire structure :
  | N = N_up - N_down :    0.00
  | S                 :    0.00
  | J                 :    1.00

  Highest occupied state (VBM) at    -13.03129149 eV
  | Occupation number:      1.00000000
  | Spin channel:        2

  Lowest unoccupied state (CBM) at     1.25239385 eV
  | Occupation number:      0.00000000
  | Spin channel:        1

  Overall HOMO-LUMO gap:     14.28368534 eV.

  Total energy components:
  | Sum of eigenvalues            :          -1.22533275 Ha         -33.34300058 eV
  | XC energy correction          :          -0.60764796 Ha         -16.53494215 eV
  | XC potential correction       :           0.78370828 Ha          21.32578725 eV
  | Free-atom electrostatic energy:          -0.00729799 Ha          -0.19858839 eV
  | Hartree energy correction     :           0.04093474 Ha           1.11389085 eV
  | van der Waals energy corr.    :           0.00000000 Ha           0.00000000 eV
  | Entropy correction            :           0.00000000 Ha           0.00000000 eV
  | ---------------------------
  | Total energy                  :          -1.01563568 Ha         -27.63685303 eV
  | Total energy, T -> 0          :          -1.01563568 Ha         -27.63685303 eV  <-- do not rely on this value for anything but (periodic) metals
  | Electronic free energy        :          -1.01563568 Ha         -27.63685303 eV

  Derived energy quantities:
  | Kinetic energy                :           0.81499691 Ha          22.17719442 eV
  | Electrostatic energy          :          -1.22298464 Ha         -33.27910530 eV
  | Energy correction for multipole
  | error in Hartree potential    :          -0.00008311 Ha          -0.00226146 eV
  | Sum of eigenvalues per atom                           :         -16.67150029 eV
  | Total energy (T->0) per atom                          :         -13.81842651 eV  <-- do not rely on this value for anything but (periodic) metals
  | Electronic free energy per atom                       :         -13.81842651 eV

  Self-consistency convergence accuracy:
  | Change of charge/spin density : 0.1508E+00 0.3223E+00
  | Change of sum of eigenvalues  : -.6945E+01 eV
  | Change of total energy        : -.6029E+01 eV

  End self-consistency iteration #     2       :  max(cpu_time)    wall_clock(cpu1)
  | Time for this iteration                    :        0.024 s           0.023 s
  | Charge density update                      :        0.006 s           0.005 s
  | Density mixing                             :        0.001 s           0.001 s
  | Hartree multipole update                   :        0.001 s           0.001 s
  | Hartree multipole summation                :        0.004 s           0.005 s
  | Integration                                :        0.009 s           0.009 s
  | Solution of K.-S. eqns.                    :        0.001 s           0.001 s
  | Total energy evaluation                    :        0.000 s           0.000 s
------------------------------------------------------------

------------------------------------------------------------
          Begin self-consistency iteration #    3

  Date     :  20220120, Time     :  153124.020
------------------------------------------------------------
  Evaluating new KS density.
  Integration grid: deviation in total charge (<rho> - N_e) =   5.556818E-07
  | <rho_up-rho_dn> = N_up-N_dn =     -1.8933; <|rho_up-rho_dn|> =      1.8933
  Pulay mixing of updated and previous charge densities.

  Evaluating partitioned Hartree potential by multipole expansion.
  | Analytical far-field extrapolation by fixed multipoles:
  | Hartree multipole sum: apparent total charge =  -0.128627E-05
  Summing up the Hartree potential.
  Time summed over all CPUs for potential: real work        0.032 s, elapsed        0.033 s
  | RMS charge density error from multipole expansion :   0.688927E-03

  Integrating Hamiltonian matrix: batch-based integration.
  Time summed over all CPUs for integration: real work        0.065 s, elapsed        0.069 s

  Updating Kohn-Sham eigenvalues, eigenvectors, occupation numbers, and Fermi level.
  Solving generalized eigenproblem
  Solving real symmetric generalised eigenvalue problem by standard ScaLAPACK.
  Using Cholesky factor for transformation
  Using 1-stage real ELPA solver
  Solving real symmetric generalised eigenvalue problem by standard ScaLAPACK.
  Using Cholesky factor for transformation
  Using 1-stage real ELPA solver
  Determining occupation numbers for Kohn-Sham eigenstates.
  | Chemical potential (Fermi level) in eV                 : -.90166306E+01
  | Error in electron count due to remaining E_F inaccuracy: 0.00000000E+00
  | Maximum occupation number of highest empty state:  0.00E+00

  Current spin moment of the entire structure :
  | N = N_up - N_down :    0.00
  | S                 :    0.00
  | J                 :    1.00

  Highest occupied state (VBM) at    -11.52420196 eV
  | Occupation number:      1.00000000
  | Spin channel:        2

  Lowest unoccupied state (CBM) at     1.36455922 eV
  | Occupation number:      0.00000000
  | Spin channel:        1

  Overall HOMO-LUMO gap:     12.88876119 eV.

  Total energy components:
  | Sum of eigenvalues            :          -1.06331341 Ha         -28.93423011 eV
  | XC energy correction          :          -0.50901944 Ha         -13.85112358 eV
  | XC potential correction       :           0.65439661 Ha          17.80703775 eV
  | Free-atom electrostatic energy:          -0.00729799 Ha          -0.19858839 eV
  | Hartree energy correction     :           0.06275861 Ha           1.70774855 eV
  | van der Waals energy corr.    :           0.00000000 Ha           0.00000000 eV
  | Entropy correction            :           0.00000000 Ha           0.00000000 eV
  | ---------------------------
  | Total energy                  :          -0.86247562 Ha         -23.46915579 eV
  | Total energy, T -> 0          :          -0.86247562 Ha         -23.46915579 eV  <-- do not rely on this value for anything but (periodic) metals
  | Electronic free energy        :          -0.86247562 Ha         -23.46915579 eV

  Derived energy quantities:
  | Kinetic energy                :           0.81392537 Ha          22.14803627 eV
  | Electrostatic energy          :          -1.16738156 Ha         -31.76606847 eV
  | Energy correction for multipole
  | error in Hartree potential    :          -0.00007404 Ha          -0.00201473 eV
  | Sum of eigenvalues per atom                           :         -14.46711505 eV
  | Total energy (T->0) per atom                          :         -11.73457789 eV  <-- do not rely on this value for anything but (periodic) metals
  | Electronic free energy per atom                       :         -11.73457789 eV

  Self-consistency convergence accuracy:
  | Change of charge/spin density : 0.2477E+00 0.2839E+00
  | Change of sum of eigenvalues  : 0.4409E+01 eV
  | Change of total energy        : 0.4168E+01 eV

  End self-consistency iteration #     3       :  max(cpu_time)    wall_clock(cpu1)
  | Time for this iteration                    :        0.025 s           0.024 s
  | Charge density update                      :        0.006 s           0.005 s
  | Density mixing                             :        0.001 s           0.002 s
  | Hartree multipole update                   :        0.001 s           0.001 s
  | Hartree multipole summation                :        0.004 s           0.004 s
  | Integration                                :        0.009 s           0.009 s
  | Solution of K.-S. eqns.                    :        0.001 s           0.002 s
  | Total energy evaluation                    :        0.000 s           0.001 s
------------------------------------------------------------

------------------------------------------------------------
          Begin self-consistency iteration #    4

  Date     :  20220120, Time     :  153124.049
------------------------------------------------------------
  Evaluating new KS density.
  Integration grid: deviation in total charge (<rho> - N_e) =   5.634981E-07
  | <rho_up-rho_dn> = N_up-N_dn =     -1.9260; <|rho_up-rho_dn|> =      1.9260
  Pulay mixing of updated and previous charge densities.

  Evaluating partitioned Hartree potential by multipole expansion.
  | Analytical far-field extrapolation by fixed multipoles:
  | Hartree multipole sum: apparent total charge =  -0.387795E-05
  Summing up the Hartree potential.
  Time summed over all CPUs for potential: real work        0.032 s, elapsed        0.033 s
  | RMS charge density error from multipole expansion :   0.163913E-02

  Integrating Hamiltonian matrix: batch-based integration.
  Time summed over all CPUs for integration: real work        0.066 s, elapsed        0.070 s

  Updating Kohn-Sham eigenvalues, eigenvectors, occupation numbers, and Fermi level.
  Solving generalized eigenproblem
  Solving real symmetric generalised eigenvalue problem by standard ScaLAPACK.
  Using Cholesky factor for transformation
  Using 1-stage real ELPA solver
  Solving real symmetric generalised eigenvalue problem by standard ScaLAPACK.
  Using Cholesky factor for transformation
  Using 1-stage real ELPA solver
  Determining occupation numbers for Kohn-Sham eigenstates.
  | Chemical potential (Fermi level) in eV                 : -.98113835E+01
  | Error in electron count due to remaining E_F inaccuracy: 0.00000000E+00
  | Maximum occupation number of highest empty state:  0.00E+00

  Current spin moment of the entire structure :
  | N = N_up - N_down :    0.00
  | S                 :    0.00
  | J                 :    1.00

  Highest occupied state (VBM) at    -14.90372091 eV
  | Occupation number:      1.00000000
  | Spin channel:        2

  Lowest unoccupied state (CBM) at     0.03880364 eV
  | Occupation number:      0.00000000
  | Spin channel:        1

  Overall HOMO-LUMO gap:     14.94252456 eV.

  Total energy components:
  | Sum of eigenvalues            :          -1.19961742 Ha         -32.64325085 eV
  | XC energy correction          :          -0.49015564 Ha         -13.33781365 eV
  | XC potential correction       :           0.63018469 Ha          17.14819791 eV
  | Free-atom electrostatic energy:          -0.00729799 Ha          -0.19858839 eV
  | Hartree energy correction     :           0.16944525 Ha           4.61083990 eV
  | van der Waals energy corr.    :           0.00000000 Ha           0.00000000 eV
  | Entropy correction            :           0.00000000 Ha           0.00000000 eV
  | ---------------------------
  | Total energy                  :          -0.89744111 Ha         -24.42061508 eV
  | Total energy, T -> 0          :          -0.89744111 Ha         -24.42061508 eV  <-- do not rely on this value for anything but (periodic) metals
  | Electronic free energy        :          -0.89744111 Ha         -24.42061508 eV

  Derived energy quantities:
  | Kinetic energy                :           0.18200926 Ha           4.95272398 eV
  | Electrostatic energy          :          -0.58929473 Ha         -16.03552541 eV
  | Energy correction for multipole
  | error in Hartree potential    :           0.00016774 Ha           0.00456447 eV
  | Sum of eigenvalues per atom                           :         -16.32162543 eV
  | Total energy (T->0) per atom                          :         -12.21030754 eV  <-- do not rely on this value for anything but (periodic) metals
  | Electronic free energy per atom                       :         -12.21030754 eV

  Self-consistency convergence accuracy:
  | Change of charge/spin density : 0.1849E+00 0.2994E+00
  | Change of sum of eigenvalues  : -.3709E+01 eV
  | Change of total energy        : -.9515E+00 eV

  End self-consistency iteration #     4       :  max(cpu_time)    wall_clock(cpu1)
  | Time for this iteration                    :        0.025 s           0.025 s
  | Charge density update                      :        0.007 s           0.006 s
  | Density mixing                             :        0.001 s           0.001 s
  | Hartree multipole update                   :        0.001 s           0.002 s
  | Hartree multipole summation                :        0.004 s           0.004 s
  | Integration                                :        0.009 s           0.009 s
  | Solution of K.-S. eqns.                    :        0.001 s           0.001 s
  | Total energy evaluation                    :        0.000 s           0.000 s
------------------------------------------------------------

------------------------------------------------------------
          Begin self-consistency iteration #    5

  Date     :  20220120, Time     :  153124.079
------------------------------------------------------------
  Evaluating new KS density.
  Integration grid: deviation in total charge (<rho> - N_e) =   4.702456E-07
  | <rho_up-rho_dn> = N_up-N_dn =     -1.4630; <|rho_up-rho_dn|> =      1.4630
  Pulay mixing of updated and previous charge densities.

  Evaluating partitioned Hartree potential by multipole expansion.
  | Analytical far-field extrapolation by fixed multipoles:
  | Hartree multipole sum: apparent total charge =  -0.139515E-04
  Summing up the Hartree potential.
  Time summed over all CPUs for potential: real work        0.033 s, elapsed        0.034 s
  | RMS charge density error from multipole expansion :   0.931744E-02

  Integrating Hamiltonian matrix: batch-based integration.
  Time summed over all CPUs for integration: real work        0.071 s, elapsed        0.075 s

  Updating Kohn-Sham eigenvalues, eigenvectors, occupation numbers, and Fermi level.
  Solving generalized eigenproblem
  Solving real symmetric generalised eigenvalue problem by standard ScaLAPACK.
  Using Cholesky factor for transformation
  Using 1-stage real ELPA solver
  Solving real symmetric generalised eigenvalue problem by standard ScaLAPACK.
  Using Cholesky factor for transformation
  Using 1-stage real ELPA solver
  Determining occupation numbers for Kohn-Sham eigenstates.
  | Chemical potential (Fermi level) in eV                 : -.28282197E+02
  | Error in electron count due to remaining E_F inaccuracy: 0.00000000E+00
  | Maximum occupation number of highest empty state:  0.00E+00

  Current spin moment of the entire structure :
  | N = N_up - N_down :    0.00
  | S                 :    0.00
  | J                 :    1.00

  Highest occupied state (VBM) at    -30.71338493 eV
  | Occupation number:      1.00000000
  | Spin channel:        2

  Lowest unoccupied state (CBM) at    -3.22747381 eV
  | Occupation number:      0.00000000
  | Spin channel:        1

  Overall HOMO-LUMO gap:     27.48591112 eV.

  Total energy components:
  | Sum of eigenvalues            :          -2.29639663 Ha         -62.48813156 eV
  | XC energy correction          :          -0.80972104 Ha         -22.03363058 eV
  | XC potential correction       :           1.04144662 Ha          28.33920442 eV
  | Free-atom electrostatic energy:          -0.00729799 Ha          -0.19858839 eV
  | Hartree energy correction     :          -0.00047632 Ha          -0.01296124 eV
  | van der Waals energy corr.    :           0.00000000 Ha           0.00000000 eV
  | Entropy correction            :           0.00000000 Ha           0.00000000 eV
  | ---------------------------
  | Total energy                  :          -2.07244535 Ha         -56.39410736 eV
  | Total energy, T -> 0          :          -2.07244535 Ha         -56.39410736 eV  <-- do not rely on this value for anything but (periodic) metals
  | Electronic free energy        :          -2.07244535 Ha         -56.39410736 eV

  Derived energy quantities:
  | Kinetic energy                :          -3.65536945 Ha         -99.46766363 eV
  | Electrostatic energy          :           2.39264514 Ha          65.10718685 eV
  | Energy correction for multipole
  | error in Hartree potential    :           0.00100009 Ha           0.02721385 eV
  | Sum of eigenvalues per atom                           :         -31.24406578 eV
  | Total energy (T->0) per atom                          :         -28.19705368 eV  <-- do not rely on this value for anything but (periodic) metals
  | Electronic free energy per atom                       :         -28.19705368 eV

  Self-consistency convergence accuracy:
  | Change of charge/spin density : 0.3795E+00 0.2130E+00
  | Change of sum of eigenvalues  : -.2984E+02 eV
  | Change of total energy        : -.3197E+02 eV

  End self-consistency iteration #     5       :  max(cpu_time)    wall_clock(cpu1)
  | Time for this iteration                    :        0.029 s           0.025 s
  | Charge density update                      :        0.010 s           0.005 s
  | Density mixing                             :        0.001 s           0.002 s
  | Hartree multipole update                   :        0.001 s           0.001 s
  | Hartree multipole summation                :        0.005 s           0.005 s
  | Integration                                :        0.010 s           0.009 s
  | Solution of K.-S. eqns.                    :        0.001 s           0.002 s
  | Total energy evaluation                    :        0.000 s           0.001 s
------------------------------------------------------------

------------------------------------------------------------
          Begin self-consistency iteration #    6

  Date     :  20220120, Time     :  153124.109
------------------------------------------------------------
  Evaluating new KS density.
  Integration grid: deviation in total charge (<rho> - N_e) =   2.653941E-07
  | <rho_up-rho_dn> = N_up-N_dn =     -0.6094; <|rho_up-rho_dn|> =      1.2365
  Pulay mixing of updated and previous charge densities.

  Evaluating partitioned Hartree potential by multipole expansion.
  | Analytical far-field extrapolation by fixed multipoles:
  | Hartree multipole sum: apparent total charge =  -0.386908E-04
  Summing up the Hartree potential.
  Time summed over all CPUs for potential: real work        0.035 s, elapsed        0.044 s
  | RMS charge density error from multipole expansion :   0.278651E-01

  Integrating Hamiltonian matrix: batch-based integration.
  Time summed over all CPUs for integration: real work        0.071 s, elapsed        0.076 s

  Updating Kohn-Sham eigenvalues, eigenvectors, occupation numbers, and Fermi level.
  Solving generalized eigenproblem
  Solving real symmetric generalised eigenvalue problem by standard ScaLAPACK.
  Using Cholesky factor for transformation
  Using 1-stage real ELPA solver
  Solving real symmetric generalised eigenvalue problem by standard ScaLAPACK.
  Using Cholesky factor for transformation
  Using 1-stage real ELPA solver
  Determining occupation numbers for Kohn-Sham eigenstates.
  | Chemical potential (Fermi level) in eV                 : -.84922044E+02
  | Error in electron count due to remaining E_F inaccuracy: 0.00000000E+00
  | Maximum occupation number of highest empty state:  0.00E+00

  Current spin moment of the entire structure :
  | N = N_up - N_down :    0.00
  | S                 :    0.00
  | J                 :    1.00

  Highest occupied state (VBM) at    -91.81983472 eV
  | Occupation number:      1.00000000
  | Spin channel:        2

  Lowest unoccupied state (CBM) at   -28.54317367 eV
  | Occupation number:      0.00000000
  | Spin channel:        1

  Overall HOMO-LUMO gap:     63.27666105 eV.

  Total energy components:
  | Sum of eigenvalues            :          -6.76302840 Ha        -184.03136626 eV
  | XC energy correction          :          -1.89358198 Ha         -51.52698747 eV
  | XC potential correction       :           2.44577650 Ha          66.55296468 eV
  | Free-atom electrostatic energy:          -0.00729799 Ha          -0.19858839 eV
  | Hartree energy correction     :          -5.22719990 Ha        -142.23934630 eV
  | van der Waals energy corr.    :           0.00000000 Ha           0.00000000 eV
  | Entropy correction            :           0.00000000 Ha           0.00000000 eV
  | ---------------------------
  | Total energy                  :         -11.44533178 Ha        -311.44332374 eV
  | Total energy, T -> 0          :         -11.44533178 Ha        -311.44332374 eV  <-- do not rely on this value for anything but (periodic) metals
  | Electronic free energy        :         -11.44533178 Ha        -311.44332374 eV

  Derived energy quantities:
  | Kinetic energy                :         -24.51385053 Ha        -667.05581222 eV
  | Electrostatic energy          :          14.96210073 Ha         407.13947595 eV
  | Energy correction for multipole
  | error in Hartree potential    :           0.00279276 Ha           0.07599481 eV
  | Sum of eigenvalues per atom                           :         -92.01568313 eV
  | Total energy (T->0) per atom                          :        -155.72166187 eV  <-- do not rely on this value for anything but (periodic) metals
  | Electronic free energy per atom                       :        -155.72166187 eV

  Self-consistency convergence accuracy:
  | Change of charge/spin density : 0.1411E+01 0.3447E+00
  | Change of sum of eigenvalues  : -.1215E+03 eV
  | Change of total energy        : -.2550E+03 eV

  End self-consistency iteration #     6       :  max(cpu_time)    wall_clock(cpu1)
  | Time for this iteration                    :        0.028 s           0.028 s
  | Charge density update                      :        0.007 s           0.007 s
  | Density mixing                             :        0.002 s           0.001 s
  | Hartree multipole update                   :        0.001 s           0.002 s
  | Hartree multipole summation                :        0.006 s           0.006 s
  | Integration                                :        0.010 s           0.009 s
  | Solution of K.-S. eqns.                    :        0.001 s           0.002 s
  | Total energy evaluation                    :        0.000 s           0.001 s
------------------------------------------------------------

------------------------------------------------------------
          Begin self-consistency iteration #    7

  Date     :  20220120, Time     :  153124.140
------------------------------------------------------------
  Evaluating new KS density.
  Integration grid: deviation in total charge (<rho> - N_e) =   1.652276E-07
  | <rho_up-rho_dn> = N_up-N_dn =     -0.2794; <|rho_up-rho_dn|> =      3.0591
  Pulay mixing of updated and previous charge densities.

  Evaluating partitioned Hartree potential by multipole expansion.
  | Analytical far-field extrapolation by fixed multipoles:
  | Hartree multipole sum: apparent total charge =  -0.288460E-04
  Summing up the Hartree potential.
  Time summed over all CPUs for potential: real work        0.034 s, elapsed        0.040 s
  | RMS charge density error from multipole expansion :   0.207981E-01

  Integrating Hamiltonian matrix: batch-based integration.
  Time summed over all CPUs for integration: real work        0.072 s, elapsed        0.087 s

  Updating Kohn-Sham eigenvalues, eigenvectors, occupation numbers, and Fermi level.
  Solving generalized eigenproblem
  Solving real symmetric generalised eigenvalue problem by standard ScaLAPACK.
  Using Cholesky factor for transformation
  Using 1-stage real ELPA solver
  Solving real symmetric generalised eigenvalue problem by standard ScaLAPACK.
  Using Cholesky factor for transformation
  Using 1-stage real ELPA solver
  Determining occupation numbers for Kohn-Sham eigenstates.
  | Chemical potential (Fermi level) in eV                 : -.60375013E+02
  | Error in electron count due to remaining E_F inaccuracy: 0.00000000E+00
  | Maximum occupation number of highest empty state:  0.00E+00

  Current spin moment of the entire structure :
  | N = N_up - N_down :    0.00
  | S                 :    0.00
  | J                 :    1.00

  Highest occupied state (VBM) at    -65.45782411 eV
  | Occupation number:      1.00000000
  | Spin channel:        2

  Lowest unoccupied state (CBM) at   -14.75672305 eV
  | Occupation number:      0.00000000
  | Spin channel:        1

  Overall HOMO-LUMO gap:     50.70110107 eV.

  Total energy components:
  | Sum of eigenvalues            :          -4.83145408 Ha        -131.47055455 eV
  | XC energy correction          :          -1.43268736 Ha         -38.98540661 eV
  | XC potential correction       :           1.84790986 Ha          50.28418581 eV
  | Free-atom electrostatic energy:          -0.00729799 Ha          -0.19858839 eV
  | Hartree energy correction     :          -2.33577707 Ha         -63.55972785 eV
  | van der Waals energy corr.    :           0.00000000 Ha           0.00000000 eV
  | Entropy correction            :           0.00000000 Ha           0.00000000 eV
  | ---------------------------
  | Total energy                  :          -6.75930663 Ha        -183.93009159 eV
  | Total energy, T -> 0          :          -6.75930663 Ha        -183.93009159 eV  <-- do not rely on this value for anything but (periodic) metals
  | Electronic free energy        :          -6.75930663 Ha        -183.93009159 eV

  Derived energy quantities:
  | Kinetic energy                :         -14.50788891 Ha        -394.77974351 eV
  | Electrostatic energy          :           9.18126965 Ha         249.83505854 eV
  | Energy correction for multipole
  | error in Hartree potential    :           0.00214516 Ha           0.05837268 eV
  | Sum of eigenvalues per atom                           :         -65.73527728 eV
  | Total energy (T->0) per atom                          :         -91.96504579 eV  <-- do not rely on this value for anything but (periodic) metals
  | Electronic free energy per atom                       :         -91.96504579 eV

  Self-consistency convergence accuracy:
  | Change of charge/spin density : 0.3767E+01 0.1186E+01
  | Change of sum of eigenvalues  : 0.5256E+02 eV
  | Change of total energy        : 0.1275E+03 eV

  End self-consistency iteration #     7       :  max(cpu_time)    wall_clock(cpu1)
  | Time for this iteration                    :        0.030 s           0.029 s
  | Charge density update                      :        0.007 s           0.007 s
  | Density mixing                             :        0.002 s           0.001 s
  | Hartree multipole update                   :        0.001 s           0.002 s
  | Hartree multipole summation                :        0.005 s           0.005 s
  | Integration                                :        0.011 s           0.011 s
  | Solution of K.-S. eqns.                    :        0.001 s           0.002 s
  | Total energy evaluation                    :        0.000 s           0.001 s
------------------------------------------------------------

------------------------------------------------------------
          Begin self-consistency iteration #    8

  Date     :  20220120, Time     :  153124.171
------------------------------------------------------------
  Evaluating new KS density.
  Integration grid: deviation in total charge (<rho> - N_e) =   1.789116E-07
  | <rho_up-rho_dn> = N_up-N_dn =     -0.3774; <|rho_up-rho_dn|> =      2.3465
  Pulay mixing of updated and previous charge densities.

  Evaluating partitioned Hartree potential by multipole expansion.
  | Analytical far-field extrapolation by fixed multipoles:
  | Hartree multipole sum: apparent total charge =  -0.190030E-04
  Summing up the Hartree potential.
  Time summed over all CPUs for potential: real work        0.034 s, elapsed        0.040 s
  | RMS charge density error from multipole expansion :   0.143144E-01

  Integrating Hamiltonian matrix: batch-based integration.
  Time summed over all CPUs for integration: real work        0.072 s, elapsed        0.085 s

  Updating Kohn-Sham eigenvalues, eigenvectors, occupation numbers, and Fermi level.
  Solving generalized eigenproblem
  Solving real symmetric generalised eigenvalue problem by standard ScaLAPACK.
  Using Cholesky factor for transformation
  Using 1-stage real ELPA solver
  Solving real symmetric generalised eigenvalue problem by standard ScaLAPACK.
  Using Cholesky factor for transformation
  Using 1-stage real ELPA solver
  Determining occupation numbers for Kohn-Sham eigenstates.
  | Chemical potential (Fermi level) in eV                 : -.38791331E+02
  | Error in electron count due to remaining E_F inaccuracy: 0.00000000E+00
  | Maximum occupation number of highest empty state:  0.00E+00

  Current spin moment of the entire structure :
  | N = N_up - N_down :    0.00
  | S                 :    0.00
  | J                 :    1.00

  Highest occupied state (VBM) at    -42.15628797 eV
  | Occupation number:      1.00000000
  | Spin channel:        2

  Lowest unoccupied state (CBM) at    -5.86147786 eV
  | Occupation number:      0.00000000
  | Spin channel:        1

  Overall HOMO-LUMO gap:     36.29481011 eV.

  Total energy components:
  | Sum of eigenvalues            :          -3.12900037 Ha         -85.14443227 eV
  | XC energy correction          :          -1.05127033 Ha         -28.60652111 eV
  | XC potential correction       :           1.35396502 Ha          36.84326289 eV
  | Free-atom electrostatic energy:          -0.00729799 Ha          -0.19858839 eV
  | Hartree energy correction     :          -0.61470943 Ha         -16.72709464 eV
  | van der Waals energy corr.    :           0.00000000 Ha           0.00000000 eV
  | Entropy correction            :           0.00000000 Ha           0.00000000 eV
  | ---------------------------
  | Total energy                  :          -3.44831310 Ha         -93.83337351 eV
  | Total energy, T -> 0          :          -3.44831310 Ha         -93.83337351 eV  <-- do not rely on this value for anything but (periodic) metals
  | Electronic free energy        :          -3.44831310 Ha         -93.83337351 eV

  Derived energy quantities:
  | Kinetic energy                :          -7.05754868 Ha        -192.04567088 eV
  | Electrostatic energy          :           4.66050592 Ha         126.81881847 eV
  | Energy correction for multipole
  | error in Hartree potential    :           0.00160574 Ha           0.04369444 eV
  | Sum of eigenvalues per atom                           :         -42.57221614 eV
  | Total energy (T->0) per atom                          :         -46.91668675 eV  <-- do not rely on this value for anything but (periodic) metals
  | Electronic free energy per atom                       :         -46.91668675 eV

  Self-consistency convergence accuracy:
  | Change of charge/spin density : 0.2911E+01 0.8784E+00
  | Change of sum of eigenvalues  : 0.4633E+02 eV
  | Change of total energy        : 0.9010E+02 eV

  End self-consistency iteration #     8       :  max(cpu_time)    wall_clock(cpu1)
  | Time for this iteration                    :        0.030 s           0.029 s
  | Charge density update                      :        0.008 s           0.007 s
  | Density mixing                             :        0.002 s           0.001 s
  | Hartree multipole update                   :        0.002 s           0.001 s
  | Hartree multipole summation                :        0.005 s           0.006 s
  | Integration                                :        0.011 s           0.010 s
  | Solution of K.-S. eqns.                    :        0.001 s           0.002 s
  | Total energy evaluation                    :        0.000 s           0.001 s
------------------------------------------------------------

------------------------------------------------------------
          Begin self-consistency iteration #    9

  Date     :  20220120, Time     :  153124.202
------------------------------------------------------------
  Evaluating new KS density.
  Integration grid: deviation in total charge (<rho> - N_e) =   1.375372E-07
  | <rho_up-rho_dn> = N_up-N_dn =     -0.2452; <|rho_up-rho_dn|> =      1.6562
  Pulay mixing of updated and previous charge densities.

  Evaluating partitioned Hartree potential by multipole expansion.
  | Analytical far-field extrapolation by fixed multipoles:
  | Hartree multipole sum: apparent total charge =   0.554002E-05
  Summing up the Hartree potential.
  Time summed over all CPUs for potential: real work        0.034 s, elapsed        0.040 s
  | RMS charge density error from multipole expansion :   0.330403E-02

  Integrating Hamiltonian matrix: batch-based integration.
  Time summed over all CPUs for integration: real work        0.068 s, elapsed        0.077 s

  Updating Kohn-Sham eigenvalues, eigenvectors, occupation numbers, and Fermi level.
  Solving generalized eigenproblem
  Solving real symmetric generalised eigenvalue problem by standard ScaLAPACK.
  Using Cholesky factor for transformation
  Using 1-stage real ELPA solver
  Solving real symmetric generalised eigenvalue problem by standard ScaLAPACK.
  Using Cholesky factor for transformation
  Using 1-stage real ELPA solver
  Determining occupation numbers for Kohn-Sham eigenstates.
  | Chemical potential (Fermi level) in eV                 : -.53272913E+01
  | Error in electron count due to remaining E_F inaccuracy: 0.00000000E+00
  | Maximum occupation number of highest empty state:  0.00E+00

  Current spin moment of the entire structure :
  | N = N_up - N_down :    0.00
  | S                 :    0.00
  | J                 :    1.00

  Highest occupied state (VBM) at     -7.63990541 eV
  | Occupation number:      1.00000000
  | Spin channel:        1

  Lowest unoccupied state (CBM) at     1.97379811 eV
  | Occupation number:      0.00000000
  | Spin channel:        1

  Overall HOMO-LUMO gap:      9.61370352 eV.

  Total energy components:
  | Sum of eigenvalues            :          -0.56183113 Ha         -15.28820298 eV
  | XC energy correction          :          -0.98381260 Ha         -26.77090299 eV
  | XC potential correction       :           1.26549967 Ha          34.43599820 eV
  | Free-atom electrostatic energy:          -0.00729799 Ha          -0.19858839 eV
  | Hartree energy correction     :          -0.80627685 Ha         -21.93990950 eV
  | van der Waals energy corr.    :           0.00000000 Ha           0.00000000 eV
  | Entropy correction            :           0.00000000 Ha           0.00000000 eV
  | ---------------------------
  | Total energy                  :          -1.09371890 Ha         -29.76160566 eV
  | Total energy, T -> 0          :          -1.09371890 Ha         -29.76160566 eV  <-- do not rely on this value for anything but (periodic) metals
  | Electronic free energy        :          -1.09371890 Ha         -29.76160566 eV

  Derived energy quantities:
  | Kinetic energy                :           2.00921274 Ha          54.67346037 eV
  | Electrostatic energy          :          -2.11911904 Ha         -57.66416303 eV
  | Energy correction for multipole
  | error in Hartree potential    :           0.00032986 Ha           0.00897604 eV
  | Sum of eigenvalues per atom                           :          -7.64410149 eV
  | Total energy (T->0) per atom                          :         -14.88080283 eV  <-- do not rely on this value for anything but (periodic) metals
  | Electronic free energy per atom                       :         -14.88080283 eV

  Self-consistency convergence accuracy:
  | Change of charge/spin density : 0.2028E+01 0.6321E+00
  | Change of sum of eigenvalues  : 0.6986E+02 eV
  | Change of total energy        : 0.6407E+02 eV

  End self-consistency iteration #     9       :  max(cpu_time)    wall_clock(cpu1)
  | Time for this iteration                    :        0.029 s           0.028 s
  | Charge density update                      :        0.007 s           0.006 s
  | Density mixing                             :        0.002 s           0.002 s
  | Hartree multipole update                   :        0.001 s           0.001 s
  | Hartree multipole summation                :        0.005 s           0.006 s
  | Integration                                :        0.010 s           0.009 s
  | Solution of K.-S. eqns.                    :        0.002 s           0.002 s
  | Total energy evaluation                    :        0.000 s           0.000 s
------------------------------------------------------------

------------------------------------------------------------
          Begin self-consistency iteration #   10

  Date     :  20220120, Time     :  153124.231
------------------------------------------------------------
  Evaluating new KS density.
  Integration grid: deviation in total charge (<rho> - N_e) =   3.572559E-08
  | <rho_up-rho_dn> = N_up-N_dn =     -0.0175; <|rho_up-rho_dn|> =      0.0346
  Pulay mixing of updated and previous charge densities.

  Evaluating partitioned Hartree potential by multipole expansion.
  | Analytical far-field extrapolation by fixed multipoles:
  | Hartree multipole sum: apparent total charge =   0.113887E-04
  Summing up the Hartree potential.
  Time summed over all CPUs for potential: real work        0.033 s, elapsed        0.033 s
  | RMS charge density error from multipole expansion :   0.744397E-02

  Integrating Hamiltonian matrix: batch-based integration.
  Time summed over all CPUs for integration: real work        0.062 s, elapsed        0.065 s

  Updating Kohn-Sham eigenvalues, eigenvectors, occupation numbers, and Fermi level.
  Solving generalized eigenproblem
  Solving real symmetric generalised eigenvalue problem by standard ScaLAPACK.
  Using Cholesky factor for transformation
  Using 1-stage real ELPA solver
  Solving real symmetric generalised eigenvalue problem by standard ScaLAPACK.
  Using Cholesky factor for transformation
  Using 1-stage real ELPA solver
  Determining occupation numbers for Kohn-Sham eigenstates.
  | Chemical potential (Fermi level) in eV                 : 0.20518643E+01
  | Error in electron count due to remaining E_F inaccuracy: 0.00000000E+00
  | Maximum occupation number of highest empty state:  0.00E+00

  Current spin moment of the entire structure :
  | N = N_up - N_down :    0.00
  | S                 :    0.00
  | J                 :    1.00

  Highest occupied state (VBM) at      0.15715975 eV
  | Occupation number:      1.00000000
  | Spin channel:        2
 * WARNING: The VBM is higher than the internal energy zero!

  Lowest unoccupied state (CBM) at     2.29247318 eV
  | Occupation number:      0.00000000
  | Spin channel:        1

  Overall HOMO-LUMO gap:      2.13531344 eV.

  Total energy components:
  | Sum of eigenvalues            :           0.00436743 Ha           0.11884386 eV
  | XC energy correction          :          -1.52336673 Ha         -41.45291788 eV
  | XC potential correction       :           1.96414959 Ha          53.44722958 eV
  | Free-atom electrostatic energy:          -0.00729799 Ha          -0.19858839 eV
  | Hartree energy correction     :          -1.92611224 Ha         -52.41218065 eV
  | van der Waals energy corr.    :           0.00000000 Ha           0.00000000 eV
  | Entropy correction            :           0.00000000 Ha           0.00000000 eV
  | ---------------------------
  | Total energy                  :          -1.48825994 Ha         -40.49761348 eV
  | Total energy, T -> 0          :          -1.48825994 Ha         -40.49761348 eV  <-- do not rely on this value for anything but (periodic) metals
  | Electronic free energy        :          -1.48825994 Ha         -40.49761348 eV

  Derived energy quantities:
  | Kinetic energy                :           2.91707716 Ha          79.37770810 eV
  | Electrostatic energy          :          -2.88197036 Ha         -78.42240370 eV
  | Energy correction for multipole
  | error in Hartree potential    :          -0.00016298 Ha          -0.00443495 eV
  | Sum of eigenvalues per atom                           :           0.05942193 eV
  | Total energy (T->0) per atom                          :         -20.24880674 eV  <-- do not rely on this value for anything but (periodic) metals
  | Electronic free energy per atom                       :         -20.24880674 eV

  Self-consistency convergence accuracy:
  | Change of charge/spin density : 0.2138E+00 0.9389E-02
  | Change of sum of eigenvalues  : 0.1541E+02 eV
  | Change of total energy        : -.1074E+02 eV

  End self-consistency iteration #    10       :  max(cpu_time)    wall_clock(cpu1)
  | Time for this iteration                    :        0.026 s           0.025 s
  | Charge density update                      :        0.007 s           0.006 s
  | Density mixing                             :        0.002 s           0.002 s
  | Hartree multipole update                   :        0.001 s           0.002 s
  | Hartree multipole summation                :        0.004 s           0.004 s
  | Integration                                :        0.008 s           0.009 s
  | Solution of K.-S. eqns.                    :        0.001 s           0.001 s
  | Total energy evaluation                    :        0.000 s           0.000 s
------------------------------------------------------------

------------------------------------------------------------
          Begin self-consistency iteration #   11

  Date     :  20220120, Time     :  153124.260
------------------------------------------------------------
  Evaluating new KS density.
  Integration grid: deviation in total charge (<rho> - N_e) =   4.159325E-08
  | <rho_up-rho_dn> = N_up-N_dn =      0.0011; <|rho_up-rho_dn|> =      0.6633
  Pulay mixing of updated and previous charge densities.

  Evaluating partitioned Hartree potential by multipole expansion.
  | Analytical far-field extrapolation by fixed multipoles:
  | Hartree multipole sum: apparent total charge =   0.106681E-04
  Summing up the Hartree potential.
  Time summed over all CPUs for potential: real work        0.035 s, elapsed        0.042 s
  | RMS charge density error from multipole expansion :   0.596456E-02

  Integrating Hamiltonian matrix: batch-based integration.
  Time summed over all CPUs for integration: real work        0.065 s, elapsed        0.068 s

  Updating Kohn-Sham eigenvalues, eigenvectors, occupation numbers, and Fermi level.
  Solving generalized eigenproblem
  Solving real symmetric generalised eigenvalue problem by standard ScaLAPACK.
  Using Cholesky factor for transformation
  Using 1-stage real ELPA solver
  Solving real symmetric generalised eigenvalue problem by standard ScaLAPACK.
  Using Cholesky factor for transformation
  Using 1-stage real ELPA solver
  Determining occupation numbers for Kohn-Sham eigenstates.
  | Chemical potential (Fermi level) in eV                 : 0.52739167E+00
  | Error in electron count due to remaining E_F inaccuracy: 0.00000000E+00
  | Maximum occupation number of highest empty state:  0.00E+00

  Current spin moment of the entire structure :
  | N = N_up - N_down :    0.00
  | S                 :    0.00
  | J                 :    1.00

  Highest occupied state (VBM) at     -1.52317964 eV
  | Occupation number:      1.00000000
  | Spin channel:        2

  Lowest unoccupied state (CBM) at     2.68404152 eV
  | Occupation number:      0.00000000
  | Spin channel:        1

  Overall HOMO-LUMO gap:      4.20722115 eV.

  Total energy components:
  | Sum of eigenvalues            :          -0.11505911 Ha          -3.13091760 eV
  | XC energy correction          :          -1.35237178 Ha         -36.79990840 eV
  | XC potential correction       :           1.74242552 Ha          47.41381066 eV
  | Free-atom electrostatic energy:          -0.00729799 Ha          -0.19858839 eV
  | Hartree energy correction     :          -1.56499765 Ha         -42.58575276 eV
  | van der Waals energy corr.    :           0.00000000 Ha           0.00000000 eV
  | Entropy correction            :           0.00000000 Ha           0.00000000 eV
  | ---------------------------
  | Total energy                  :          -1.29730101 Ha         -35.30135650 eV
  | Total energy, T -> 0          :          -1.29730101 Ha         -35.30135650 eV  <-- do not rely on this value for anything but (periodic) metals
  | Electronic free energy        :          -1.29730101 Ha         -35.30135650 eV

  Derived energy quantities:
  | Kinetic energy                :           2.74583666 Ha          74.71801704 eV
  | Electrostatic energy          :          -2.69076589 Ha         -73.21946513 eV
  | Energy correction for multipole
  | error in Hartree potential    :           0.00004437 Ha           0.00120730 eV
  | Sum of eigenvalues per atom                           :          -1.56545880 eV
  | Total energy (T->0) per atom                          :         -17.65067825 eV  <-- do not rely on this value for anything but (periodic) metals
[...]
  | Change of sum of eigenvalues  : -.1242E-04 eV
  | Change of total energy        : -.3588E-08 eV

  End self-consistency iteration #    30       :  max(cpu_time)    wall_clock(cpu1)
  | Time for this iteration                    :        0.029 s           0.025 s
  | Charge density update                      :        0.009 s           0.006 s
  | Density mixing                             :        0.002 s           0.001 s
  | Hartree multipole update                   :        0.001 s           0.002 s
  | Hartree multipole summation                :        0.004 s           0.004 s
  | Integration                                :        0.010 s           0.010 s
  | Solution of K.-S. eqns.                    :        0.001 s           0.001 s
  | Total energy evaluation                    :        0.000 s           0.000 s
------------------------------------------------------------

------------------------------------------------------------
          Begin self-consistency iteration #   31

  Date     :  20220120, Time     :  153124.868
------------------------------------------------------------
  Evaluating new KS density.
  Integration grid: deviation in total charge (<rho> - N_e) =   7.727152E-14
  | <rho_up-rho_dn> = N_up-N_dn =      0.0000; <|rho_up-rho_dn|> =      0.0000
  Pulay mixing of updated and previous charge densities.

  Evaluating partitioned Hartree potential by multipole expansion.
  | Analytical far-field extrapolation by fixed multipoles:
  | Hartree multipole sum: apparent total charge =   0.131653E-05
  Summing up the Hartree potential.
  Time summed over all CPUs for potential: real work        0.032 s, elapsed        0.033 s
  | RMS charge density error from multipole expansion :   0.221769E-02

  Integrating Hamiltonian matrix: batch-based integration.
  Time summed over all CPUs for integration: real work        0.071 s, elapsed        0.075 s

  Updating Kohn-Sham eigenvalues, eigenvectors, occupation numbers, and Fermi level.
  Solving generalized eigenproblem
  Solving real symmetric generalised eigenvalue problem by standard ScaLAPACK.
  Using Cholesky factor for transformation
  Using 1-stage real ELPA solver
  Solving real symmetric generalised eigenvalue problem by standard ScaLAPACK.
  Using Cholesky factor for transformation
  Using 1-stage real ELPA solver
  Determining occupation numbers for Kohn-Sham eigenstates.
  | Chemical potential (Fermi level) in eV                 : -.10205715E+02
  | Error in electron count due to remaining E_F inaccuracy: 0.00000000E+00
  | Maximum occupation number of highest empty state:  0.00E+00

  Current spin moment of the entire structure :
  | N = N_up - N_down :    0.00
  | S                 :    0.00
  | J                 :    1.00

  Highest occupied state (VBM) at    -11.92076387 eV
  | Occupation number:      1.00000000
  | Spin channel:        1

  Lowest unoccupied state (CBM) at     1.24685271 eV
  | Occupation number:      0.00000000
  | Spin channel:        1

  Overall HOMO-LUMO gap:     13.16761658 eV.

  Total energy components:
  | Sum of eigenvalues            :          -0.87616004 Ha         -23.84152782 eV
  | XC energy correction          :          -0.79231909 Ha         -21.56009938 eV
  | XC potential correction       :           1.01674168 Ha          27.66694882 eV
  | Free-atom electrostatic energy:          -0.00729799 Ha          -0.19858839 eV
  | Hartree energy correction     :          -0.41691374 Ha         -11.34480013 eV
  | van der Waals energy corr.    :           0.00000000 Ha           0.00000000 eV
  | Entropy correction            :           0.00000000 Ha           0.00000000 eV
  | ---------------------------
  | Total energy                  :          -1.07594918 Ha         -29.27806690 eV
  | Total energy, T -> 0          :          -1.07594918 Ha         -29.27806690 eV  <-- do not rely on this value for anything but (periodic) metals
  | Electronic free energy        :          -1.07594918 Ha         -29.27806690 eV

  Derived energy quantities:
  | Kinetic energy                :           1.48899668 Ha          40.51766127 eV
  | Electrostatic energy          :          -1.77262678 Ha         -48.23562879 eV
  | Energy correction for multipole
  | error in Hartree potential    :           0.00007040 Ha           0.00191555 eV
  | Sum of eigenvalues per atom                           :         -11.92076391 eV
  | Total energy (T->0) per atom                          :         -14.63903345 eV  <-- do not rely on this value for anything but (periodic) metals
  | Electronic free energy per atom                       :         -14.63903345 eV

  Self-consistency convergence accuracy:
  | Change of charge/spin density : 0.1122E-06 0.2203E-07
  | Change of sum of eigenvalues  : 0.1013E-04 eV
  | Change of total energy        : -.5378E-10 eV

  End self-consistency iteration #    31       :  max(cpu_time)    wall_clock(cpu1)
  | Time for this iteration                    :        0.029 s           0.026 s
  | Charge density update                      :        0.009 s           0.006 s
  | Density mixing                             :        0.002 s           0.002 s
  | Hartree multipole update                   :        0.001 s           0.001 s
  | Hartree multipole summation                :        0.005 s           0.005 s
  | Integration                                :        0.009 s           0.009 s
  | Solution of K.-S. eqns.                    :        0.001 s           0.002 s
  | Total energy evaluation                    :        0.000 s           0.001 s
------------------------------------------------------------

------------------------------------------------------------
          Begin self-consistency iteration #   32

  Date     :  20220120, Time     :  153124.899
------------------------------------------------------------
  Evaluating new KS density.
  Integration grid: deviation in total charge (<rho> - N_e) =   6.394885E-14
  | <rho_up-rho_dn> = N_up-N_dn =      0.0000; <|rho_up-rho_dn|> =      0.0000
  Pulay mixing of updated and previous charge densities.

  Evaluating partitioned Hartree potential by multipole expansion.
  | Analytical far-field extrapolation by fixed multipoles:
  | Hartree multipole sum: apparent total charge =   0.131653E-05
  Summing up the Hartree potential.
  Time summed over all CPUs for potential: real work        0.032 s, elapsed        0.033 s
  | RMS charge density error from multipole expansion :   0.221769E-02

  Integrating Hamiltonian matrix: batch-based integration.
  Time summed over all CPUs for integration: real work        0.072 s, elapsed        0.075 s

  Updating Kohn-Sham eigenvalues, eigenvectors, occupation numbers, and Fermi level.
  Solving generalized eigenproblem
  Solving real symmetric generalised eigenvalue problem by standard ScaLAPACK.
  Using Cholesky factor for transformation
  Using 1-stage real ELPA solver
  Solving real symmetric generalised eigenvalue problem by standard ScaLAPACK.
  Using Cholesky factor for transformation
  Using 1-stage real ELPA solver
  Determining occupation numbers for Kohn-Sham eigenstates.
  | Chemical potential (Fermi level) in eV                 : -.10205719E+02
  | Error in electron count due to remaining E_F inaccuracy: 0.00000000E+00
  | Maximum occupation number of highest empty state:  0.00E+00

  Current spin moment of the entire structure :
  | N = N_up - N_down :    0.00
  | S                 :    0.00
  | J                 :    1.00

  Highest occupied state (VBM) at    -11.92076364 eV
  | Occupation number:      1.00000000
  | Spin channel:        1

  Lowest unoccupied state (CBM) at     1.24687401 eV
  | Occupation number:      0.00000000
  | Spin channel:        1

  Overall HOMO-LUMO gap:     13.16763765 eV.

  Total energy components:
  | Sum of eigenvalues            :          -0.87616003 Ha         -23.84152733 eV
  | XC energy correction          :          -0.79231910 Ha         -21.56009955 eV
  | XC potential correction       :           1.01674169 Ha          27.66694903 eV
  | Free-atom electrostatic energy:          -0.00729799 Ha          -0.19858839 eV
  | Hartree energy correction     :          -0.41691376 Ha         -11.34480065 eV
  | van der Waals energy corr.    :           0.00000000 Ha           0.00000000 eV
  | Entropy correction            :           0.00000000 Ha           0.00000000 eV
  | ---------------------------
  | Total energy                  :          -1.07594918 Ha         -29.27806690 eV
  | Total energy, T -> 0          :          -1.07594918 Ha         -29.27806690 eV  <-- do not rely on this value for anything but (periodic) metals
  | Electronic free energy        :          -1.07594918 Ha         -29.27806690 eV

  Derived energy quantities:
  | Kinetic energy                :           1.48899669 Ha          40.51766159 eV
  | Electrostatic energy          :          -1.77262678 Ha         -48.23562893 eV
  | Energy correction for multipole
  | error in Hartree potential    :           0.00007040 Ha           0.00191555 eV
  | Sum of eigenvalues per atom                           :         -11.92076367 eV
  | Total energy (T->0) per atom                          :         -14.63903345 eV  <-- do not rely on this value for anything but (periodic) metals
  | Electronic free energy per atom                       :         -14.63903345 eV

  Self-consistency convergence accuracy:
  | Change of charge/spin density : 0.1377E-07 0.8283E-08
  | Change of sum of eigenvalues  : 0.4856E-06 eV
  | Change of total energy        : -.7776E-11 eV

  Writing Kohn-Sham eigenvalues.

  Spin-up eigenvalues:

  State    Occupation    Eigenvalue [Ha]    Eigenvalue [eV]
      1       1.00000          -0.438080          -11.92076
      2       0.00000           0.045822            1.24687
      3       0.00000           0.047430            1.29064
      4       0.00000           0.211112            5.74464
      5       0.00000           0.344673            9.37904
      6       0.00000           0.344673            9.37904
      7       0.00000           0.350150            9.52807
      8       0.00000           0.683906           18.61003
      9       0.00000           0.785364           21.37083
     10       0.00000           0.785364           21.37083
     11       0.00000           0.822439           22.37971

  Spin-down eigenvalues:

  State    Occupation    Eigenvalue [Ha]    Eigenvalue [eV]
      1       1.00000          -0.438080          -11.92076
      2       0.00000           0.045822            1.24689
      3       0.00000           0.047431            1.29066
      4       0.00000           0.211113            5.74467
      5       0.00000           0.344673            9.37904
      6       0.00000           0.344673            9.37904
      7       0.00000           0.350151            9.52809
      8       0.00000           0.683907           18.61005
      9       0.00000           0.785364           21.37083
     10       0.00000           0.785364           21.37083
     11       0.00000           0.822439           22.37971

  Current spin moment of the entire structure :
  | N = N_up - N_down :    0.00
  | S                 :    0.00
  | J                 :    1.00

  Highest occupied state (VBM) at    -11.92076364 eV
  | Occupation number:      1.00000000
  | Spin channel:        1

  Lowest unoccupied state (CBM) at     1.24687401 eV
  | Occupation number:      0.00000000
  | Spin channel:        1

  Overall HOMO-LUMO gap:     13.16763765 eV.

  Self-consistency cycle converged.

  End self-consistency iteration #    32       :  max(cpu_time)    wall_clock(cpu1)
  | Time for this iteration                    :        0.026 s           0.027 s
  | Charge density update                      :        0.007 s           0.006 s
  | Density mixing                             :        0.002 s           0.002 s
  | Hartree multipole update                   :        0.001 s           0.001 s
  | Hartree multipole summation                :        0.004 s           0.005 s
  | Integration                                :        0.009 s           0.009 s
  | Solution of K.-S. eqns.                    :        0.001 s           0.002 s
  | Total energy evaluation                    :        0.000 s           0.001 s
------------------------------------------------------------
  Obtaining max. number of non-zero basis functions in each batch .
  Evaluating KS electron density on previously omitted grid points.
  Evaluating non-empirical van der Waals correction (Tkatchenko/Scheffler 2009).
  Performing Hirshfeld analysis of fragment charges and moments.
  ----------------------------------------------------------------------
  | Atom     1: H
  |   Hirshfeld charge        :     -0.00000145
  |   Free atom volume        :     10.31539447
  |   Hirshfeld volume        :      4.00479666
  |   Hirshfeld spin moment   :     -0.00000000
  |   Hirshfeld dipole vector :      0.00000000       0.00000000      -0.06374922
  |   Hirshfeld dipole moment :      0.06374922
  |   Hirshfeld second moments:      0.16113036       0.00000000       0.00000000
  |                                  0.00000000       0.16113036       0.00000000
  |                                  0.00000000       0.00000000       0.15627780
  ----------------------------------------------------------------------
  | Atom     2: H
  |   Hirshfeld charge        :     -0.00000145
  |   Free atom volume        :     10.31539447
  |   Hirshfeld volume        :      4.00479666
  |   Hirshfeld spin moment   :     -0.00000000
  |   Hirshfeld dipole vector :      0.00000000       0.00000000       0.06374922
  |   Hirshfeld dipole moment :      0.06374922
  |   Hirshfeld second moments:      0.16113036      -0.00000000       0.00000000
  |                                 -0.00000000       0.16113036       0.00000000
  |                                  0.00000000       0.00000000       0.15627780
  ----------------------------------------------------------------------


  Total energy components:
  | Sum of eigenvalues            :          -0.87616003 Ha         -23.84152733 eV
  | XC energy correction          :          -0.79231910 Ha         -21.56009955 eV
  | XC potential correction       :           1.01674169 Ha          27.66694903 eV
  | Free-atom electrostatic energy:          -0.00729799 Ha          -0.19858839 eV
  | Hartree energy correction     :          -0.41691376 Ha         -11.34480065 eV
  | van der Waals energy corr.    :          -0.00000026 Ha          -0.00000703 eV
  | Entropy correction            :           0.00000000 Ha           0.00000000 eV
  | ---------------------------
  | Total energy                  :          -1.07594944 Ha         -29.27807393 eV
  | Total energy, T -> 0          :          -1.07594944 Ha         -29.27807393 eV  <-- do not rely on this value for anything but (periodic) metals
  | Electronic free energy        :          -1.07594944 Ha         -29.27807393 eV

  Derived energy quantities:
  | Kinetic energy                :           1.48899669 Ha          40.51766159 eV
  | Electrostatic energy          :          -1.77262678 Ha         -48.23562893 eV
  | Energy correction for multipole
  | error in Hartree potential    :           0.00007040 Ha           0.00191555 eV
  | Sum of eigenvalues per atom                           :         -11.92076367 eV
  | Total energy (T->0) per atom                          :         -14.63903697 eV  <-- do not rely on this value for anything but (periodic) metals
  | Electronic free energy per atom                       :         -14.63903697 eV
  Timings for VdW correction (Tkatchenko-Scheffler 2009 or later):
  | CPU time:        0.003 s, Wall clock time:        0.003 s.

  Energy and forces in a compact form:
  | Total energy uncorrected      :         -0.292780739312314E+02 eV
  | Total energy corrected        :         -0.292780739312314E+02 eV  <-- do not rely on this value for anything but (periodic) metals
  | Electronic free energy        :         -0.292780739312314E+02 eV

  ------------------------------------ 
  Start decomposition of the XC Energy 
  ------------------------------------ 
  Hartree-Fock part   :          0.000000000 Ha              0.000000000 eV
  ------------------------------------ 
  X Energy            :         -0.748533973 Ha            -20.368645746 eV
  C Energy GGA        :         -0.043785123 Ha             -1.191453806 eV
  Total XC Energy     :         -0.792319095 Ha            -21.560099552 eV
  LDA X and C from self-consistent density 
  X Energy LDA        :         -0.655483611 Ha            -17.836616574 eV
  C Energy LDA        :         -0.100192937 Ha             -2.726388525 eV
  ------------------------------------ 
  End decomposition of the XC Energy 
  ------------------------------------ 

------------------------------------------------------------------------------
  Final output of selected total energy values:

  The following output summarizes some interesting total energy values
  at the end of a run (AFTER all relaxation, molecular dynamics, etc.).

  | Total energy of the DFT / Hartree-Fock s.c.f. calculation      :            -29.278073931 eV
  | Final zero-broadening corrected energy (caution - metals only) :            -29.278073931 eV
  | For reference only, the value of 1 Hartree used in FHI-aims is :             27.211384500 eV

  Before relying on these values, please be sure to understand exactly which
  total energy value is referred to by a given number. Different objects may
  all carry the same name 'total energy'. Definitions:

  Total energy of the DFT / Hartree-Fock s.c.f. calculation:
  | Note that this energy does not include ANY quantities calculated after the
  | s.c.f. cycle, in particular not ANY RPA, MP2, etc. many-body perturbation terms.

  Final zero-broadening corrected energy:
  | For metallic systems only, a broadening of the occupation numbers at the Fermi
  | level can be extrapolated back to zero broadening by an electron-gas inspired
  | formula. For all systems that are not real metals, this value can be
  | meaningless and should be avoided.

------------------------------------------------------------------------------

------------------------------------------------------------
          Leaving FHI-aims.
          Date     :  20220120, Time     :  153124.936

          Computational steps:
          | Number of self-consistency cycles          :           32

          Detailed time accounting                     :  max(cpu_time)    wall_clock(cpu1)
          | Total time                                 :        1.077 s           1.171 s
          | Preparation time                           :        0.081 s           0.081 s
          | Grid partitioning                          :        0.007 s           0.007 s
          | Preloading free-atom quantities on grid    :        0.004 s           0.004 s
          | Free-atom superposition energy             :        0.002 s           0.002 s
          | Total time for integrations                :        0.328 s           0.329 s
          | Total time for solution of K.-S. equations :        0.055 s           0.058 s
          | Total time for density update              :        0.230 s           0.197 s
          | Total time for mixing                      :        0.061 s           0.061 s
          | Total time for Hartree multipole update    :        0.045 s           0.048 s
          | Total time for Hartree multipole sum       :        0.160 s           0.162 s
          | Total time for total energy evaluation     :        0.006 s           0.014 s
          | Total time for scaled ZORA corrections     :        0.000 s           0.000 s
          | Total time for vdW correction              :        0.003 s           0.003 s

          Have a nice day.
------------------------------------------------------------
