  MPI-parallelism will be employed.
------------------------------------------------------------
          Invoking FHI-aims ...
          Version 052014
          Git rev. (modified): 096c982 Merge branch master of fhiaims:/pub/localo[...]
          Compiled on 2016/12/16 at 15:22:01 on host login02.hpc.iitd.ac.in.

          When using FHI-aims, please cite the following reference:

          Volker Blum, Ralf Gehrke, Felix Hanke, Paula Havu,
          Ville Havu, Xinguo Ren, Karsten Reuter, and Matthias Scheffler,
          'Ab Initio Molecular Simulations with Numeric Atom-Centered Orbitals: FHI-aims',
          Computer Physics Communications 180, 2175-2196 (2009)

          For any questions about FHI-aims, please visit the aimsclub website
          with its forums and wiki. Contributions to both the forums and the
          wiki are warmly encouraged - they are for you, and everyone is welcome there.

------------------------------------------------------------

  Date     :  20220221, Time     :  151606.821
  Time zero on CPU 1             :   0.128400000000000E-01  s.
  Internal wall clock time zero  :           414688566.821  s.

  Using        8 parallel tasks.
  Task        0 on host csky071 reporting.
  Task        1 on host csky071 reporting.
  Task        2 on host csky071 reporting.
  Task        3 on host csky071 reporting.
  Task        4 on host csky071 reporting.
  Task        5 on host csky071 reporting.
  Task        6 on host csky071 reporting.
  Task        7 on host csky071 reporting.

  Performing system and environment tests:
  | Environment variable OMP_NUM_THREADS correctly set to 1.
  | Stacksize not measured: no C compiler
  | Checking for scalapack...
  | Testing pdtran()...
  | All pdtran() tests passed.

  Obtaining array dimensions for all initial allocations:
  
  -----------------------------------------------------------------------
  Parsing control.in (first pass over file, find array dimensions only).
  The contents of control.in will be repeated verbatim below
  unless switched off by setting 'verbatim_writeout .false.' .
  in the first line of control.in .
  -----------------------------------------------------------------------
  
    xc               pbe
    spin             collinear
    default_initial_moment hund
    relativistic     atomic_zora scalar 1e-9
    occupation_type  gaussian 0.001
    charge	0
    vdw_correction_hirshfeld
    KS_method        scalapack_fast
    mixer            pulay
    charge_mix_param  0.4
    spin_mix_param    0.6
    sc_accuracy_rho  1E-4
    sc_accuracy_eev  1E-5
    sc_accuracy_etot 1E-5
    sc_iter_limit    100
    empty_states     5
    ####### keywords for DOS########
    k_grid  2 2 1
  ##########################
  #  relax_geometry trm 5E-5
  #  sc_accuracy_forces 1e-6
  ##########################
    output dos -20 20 10000 0.01
    dos_kgrid_factors 2 2 1
  
  ################################################################################
  #
  #  FHI-aims code project
  # Volker Blum, Fritz Haber Institute Berlin, 2009
  #
  #  Suggested "tight" defaults for C atom (to be pasted into control.in file)
  #
  ################################################################################
    species        C
  #     global species definitions
      nucleus             6
      mass                12.0107
  #
      l_hartree           6
  #
      cut_pot             4.0  2.0  1.0
      basis_dep_cutoff    1e-4
  #
      radial_base         34 7.0
      radial_multiplier   2
      angular_grids specified
        division   0.2187   50
        division   0.4416  110
        division   0.6335  194
        division   0.7727  302
        division   0.8772  434
  #      division   0.9334  590
  #      division   0.9924  770
  #      division   1.0230  974
  #      division   1.5020 1202
  #     outer_grid  974
        outer_grid  434
  ################################################################################
  #
  #  Definition of "minimal" basis
  #
  ################################################################################
  #     valence basis states
      valence      2  s   2.
      valence      2  p   2.
  #     ion occupancy
      ion_occ      2  s   1.
      ion_occ      2  p   1.
  ################################################################################
  #
  #  Suggested additional basis functions. For production calculations,
  #  uncomment them one after another (the most important basis functions are
  #  listed first).
  #
  #  Constructed for dimers: 1.0 A, 1.25 A, 1.5 A, 2.0 A, 3.0 A
  #
  ################################################################################
  #  "First tier" - improvements: -1214.57 meV to -155.61 meV
       hydro 2 p 1.7
       hydro 3 d 6
       hydro 2 s 4.9
  #  "Second tier" - improvements: -67.75 meV to -5.23 meV
       hydro 4 f 9.8
       hydro 3 p 5.2
       hydro 3 s 4.3
       hydro 5 g 14.4
       hydro 3 d 6.2
  #  "Third tier" - improvements: -2.43 meV to -0.60 meV
  #     hydro 2 p 5.6
  #     hydro 2 s 1.4
  #     hydro 3 d 4.9
  #     hydro 4 f 11.2
  #  "Fourth tier" - improvements: -0.39 meV to -0.18 meV
  #     hydro 2 p 2.1
  #     hydro 5 g 16.4
  #     hydro 4 d 13.2
  #     hydro 3 s 13.6
  #     hydro 4 f 17.6
  #  Further basis functions - improvements: -0.08 meV and below
  #     hydro 3 s 2
  #     hydro 3 p 6
  #     hydro 4 d 20
  ################################################################################
  #
  # For methods that use the localized form of the "resolution of identity" for
  # the two-electron Coulomb operator (RI_method LVL), particularly Hartree-Fock and
  # hybrid density functional calculations, the highest accuracy can be obtained by
  # uncommenting the line beginning with "for_aux"  below, thus adding an extra g radial
  # function to the construction of the product basis set for the expansion.
  # See Ref. New J. Phys. 17, 093020 (2015) for more information, particularly Figs. 1 and 6.
  #
  ################################################################################
  #
  # for_aux hydro 5 g 6.0
  
  -----------------------------------------------------------------------
  Completed first pass over input file control.in .
  -----------------------------------------------------------------------
  
  
  -----------------------------------------------------------------------
  Parsing geometry.in (first pass over file, find array dimensions only).
  The contents of geometry.in will be repeated verbatim below
  unless switched off by setting 'verbatim_writeout .false.' .
  in the first line of geometry.in .
  -----------------------------------------------------------------------
  
  lattice_vector   2.1304216  -1.2299995   0.0000000
  lattice_vector   0.0000000   2.4599989   0.0000000
  lattice_vector   0.0000000   0.0000000   6.8000000
  
  atom_frac                      -0.666667  -0.333333   0.500000  C
  atom_frac                       0.666667   0.333333   0.500000  C
  
  
  -----------------------------------------------------------------------
  Completed first pass over input file geometry.in .
  -----------------------------------------------------------------------
  

  Basic array size parameters:
  | Number of species                 :        1
  | Number of atoms                   :        2
  | Number of lattice vectors         :        3
  | Max. basis fn. angular momentum   :        4
  | Max. atomic/ionic basis occupied n:        2
  | Max. number of basis fn. types    :        2
  | Max. radial fns per species/type  :        8
  | Max. logarithmic grid size        :     1277
  | Max. radial integration grid size :       69
  | Max. angular integration grid size:      434
  | Max. angular grid division number :        8
  | Radial grid for Hartree potential :     1277
  | Number of spin channels           :        2

------------------------------------------------------------
          Reading file control.in.
------------------------------------------------------------
  XC: Using PBE gradient-corrected functionals.
  Spin treatment: Spin density functional theory - collinear spins.
  Initial spin moment per atom set according to Hund's rules.
  Scalar relativistic treatment of kinetic energy: on-site free-atom approximation to ZORA.
  Occupation type: Gaussian broadening, width =   0.100000E-02 eV.
  Charge =   0.000000E+00: Neutral system requested explicitly.
  Using non-empirical van der Waals correction (Hirshfeld partitioning):
  Kohn-Sham eigenvalues and eigenfunctions calculated by the ELPA eigensolver library.
  Using pulay charge density mixing.
  Charge density mixing - mixing parameter:     0.4000
  Spin density mixing - mixing parameter:     0.6000
  Convergence accuracy of self-consistent charge density: 0.1000E-03
  Convergence accuracy of sum of eigenvalues: 0.1000E-04
  Convergence accuracy of total energy: 0.1000E-04
  Maximum number of s.-c. iterations  :   100
  Number of empty states per atom:        5
  Found k-point grid:         2         2         1
  Calculating density of states with
  | energy interval :-20.000000 20.000000
  | points & broadening : 10000  0.010000
  Found k-point grid multipliers for perturbative DOS :         2         2         1
 
  Reading configuration options for species C                   .
  | Found nuclear charge :   6.0000
  | Found atomic mass :    12.0107000000000      amu
  | Found l_max for Hartree potential  :   6
  | Found cutoff potl. onset [A], width [A], scale factor :    4.00000    2.00000    1.00000
  | Threshold for basis-dependent cutoff potential is   0.100000E-03
  | Found data for basic radial integration grid :    34 points, outermost radius =    7.000 A
  | Found multiplier for basic radial grid :   2
  | Found angular grid specification: user-specified.
  | Specified grid contains     6 separate shells.
  | Check grid settings after all constraints further below.
  | Found free-atom valence shell :  2 s   2.000
  | Found free-atom valence shell :  2 p   2.000
  | No ionic wave fns used. Skipping ion_occ.
  | No ionic wave fns used. Skipping ion_occ.
  | Found hydrogenic basis function :  2 p   1.700
  | Found hydrogenic basis function :  3 d   6.000
  | Found hydrogenic basis function :  2 s   4.900
  | Found hydrogenic basis function :  4 f   9.800
  | Found hydrogenic basis function :  3 p   5.200
  | Found hydrogenic basis function :  3 s   4.300
  | Found hydrogenic basis function :  5 g  14.400
  | Found hydrogenic basis function :  3 d   6.200
  Species C                   : Missing cutoff potential type.
  Defaulting to exp(1/x)/(1-x)^2 type cutoff potential.
  Species C : No 'logarithmic' tag. Using default grid for free atom:
  | Default logarithmic grid data [bohr] : 0.1000E-03 0.1000E+03 0.1012E+01
  Species C : On-site basis accuracy parameter (for Gram-Schmidt orthonormalisation) not specified.
  Using default value basis_acc =  0.1000000E-03.
  Species C                   : Using default innermost maximum threshold i_radial=  2 for radial functions.
  Species C                   : Default cutoff onset for free atom density etc. : 0.40000000E+01 AA.
  Species C                   : Basic radial grid will be enhanced according to radial_multiplier =   2, to contain    69 grid points.
 
  Finished reading input file 'control.in'. Consistency checks are next.
 
  Target number of points in a grid batch is not set. Defaulting to  100
  Method for grid partitioning is not set. Defaulting to parallel hash+maxmin partitioning.
  Batch size limit is not set. Defaulting to    200
  By default, will store active basis functions for each batch.
  If in need of memory, prune_basis_once .false. can be used to disable this option.
  communication_type for Hartree potential was not specified.
  Defaulting to calc_hartree .
  Pulay mixer: Number of relevant iterations not set.
  Defaulting to    8 iterations.
  Pulay mixer: Number of initial linear mixing iterations not set.
  Defaulting to    0 iterations.
  Work space size for distributed Hartree potential not set.
  Defaulting to   0.200000E+03 MB.
  Algorithm-dependent basis array size parameters:
  | n_max_pulay                         :        8
  Calculation of forces was not defined in control.in. No forces will be calculated.
  Geometry relaxation not requested: no relaxation will be performed.
  No accuracy limit for integral partition fn. given. Defaulting to 0.1000E-14.
  No threshold value for u(r) in integrations given. Defaulting to 0.1000E-05.
  No accuracy for occupation numbers given. Defaulting to 0.1000E-07.
  No threshold value for occupation numbers given. Defaulting to 0.0000E+00.
  No accuracy for fermi level given. Defaulting to 0.1000E-19.
  Maximum # of iterations to find E_F not set. Defaulting to  200.
  Maximum number of tasks per SMP nodenot specified.
  Presetting   512 tasks.
  Will not use alltoall communication since running on < 1024 CPUs.
  Threshold for basis singularities not set.
  Default threshold for basis singularities: 0.1000E-04
  partition_type (choice of integration weights) for integrals was not specified.
  | Using a version of the partition function of Stratmann and coworkers ('stratmann_smoother').
  | At each grid point, the set of atoms used to build the partition table is smoothly restricted to
  | only those atoms whose free-atom density would be non-zero at that grid point.
  Partitioning for Hartree potential was not defined. Using partition_type for integrals.
  | Adjusted default value of keyword multip_moments_threshold to:       0.10000000E-11
  | This value may affect high angular momentum components of the Hartree potential in periodic systems.
  Angular momentum expansion for Kerker preconditioner not set explicitly.
  | Using default value of   0
  No explicit requirement for turning off preconditioner.
  | By default, it will be turned off when the charge convergence reaches
  | sc_accuracy_rho  =   0.100000E-03
  | sc_accuracy_eev  =   0.100000E-04
  | sc_accuracy_etot =   0.100000E-04
  No special mixing parameter while Kerker preconditioner is on.
  Using default: charge_mix_param =     0.4000.
  No q(lm)/r^(l+1) cutoff set for long-range Hartree potential.
  | Using default value of  0.100000E-09 .
  | Verify using the multipole_threshold keyword.
  Defaulting to new monopole extrapolation.
  Density update method: automatic selection selected.
  Using density matrix based charge density update.
  Using density matrix based charge density update.
  Using packed matrix style: index .
  Defaulting to use time-reversal symmetry for k-point grid.
  Using the following vdw_convergence_threshold for supercell sums
  over the Tkatchenko-Scheffler correction: 0.100000E-04 eV.
------------------------------------------------------------


------------------------------------------------------------
          Reading geometry description geometry.in.
------------------------------------------------------------
  Input structure read successfully.
  The structure contains        2 atoms,  and a total of         12.000 electrons.

  Input geometry:
  | Unit cell:
  |         2.130422        -1.229999         0.000000
  |         0.000000         2.459999         0.000000
  |         0.000000         0.000000         6.800000
  | Atomic structure:
  |       Atom                x [A]            y [A]            z [A]
  |    1: Species C             -1.420282         0.000001         3.400000
  |    2: Species C              1.420282        -0.000001         3.400000
  |

  | The smallest distance between any two atoms is         1.42027960 AA.
  |
  | The first atom of this pair is atom number                      2 .
  | The second atom of this pair is atom number                     1 .
  | Wigner-Seitz cell of the first atom image           1     0     0 .
  | (The Wigner-Seitz cell of the second atom is 0 0 0  by definition.)

  Quantities derived from the lattice vectors:
  | Reciprocal lattice vector 1:  2.949268 -0.000000  0.000000
  | Reciprocal lattice vector 2:  1.474634  2.554142  0.000000
  | Reciprocal lattice vector 3:  0.000000  0.000000  0.923998
  | Unit cell volume                               :   0.356377E+02  A^3

  Initial moments and charges:
  |  Atom   Moment         Charge        Species
  |     1  (Hund's rule)   0.000000E+00   C
  |     2  (Hund's rule)   0.000000E+00   C

  Structure-dependent array size parameters: 
  | Number of distinct atom types in initial rho :        1
  | Maximum number of distinct radial functions  :       11
  | Maximum number of basis functions            :       78
  | Number of Kohn-Sham states (occupied + empty):       11
------------------------------------------------------------

------------------------------------------------------------
          Preparing all fixed parts of the calculation.
------------------------------------------------------------
  Determining machine precision:
    2.225073858507201E-308
  Setting up grids for atomic and cluster calculations.

  Creating wave function, potential, and density for free atoms.

  Species: C

  List of occupied orbitals and eigenvalues:
    n    l              occ      energy [Ha]    energy [eV]
    1    0           2.0000       -10.049212      -273.4530
    2    0           2.0000        -0.504761       -13.7352
    2    1           2.0000        -0.193631        -5.2690

  Spin-polarized or charged system:
  Charge density initialized according to selected moments and charges.

  Creating spin-polarized density from free atoms.

  Species: C
  Charge:   0.000000
  applying Hund's rules ...

  List of occupied orbitals and eigenvalues:
    n    l      energy [Ha]    energy [eV]    occupation
  Spin-up
    1    0       -10.040873      -273.2261     1.00000000
    2    0        -0.537730       -14.6324     1.00000000
    2    1        -0.223635        -6.0854     2.00000000
  Spin-down
    1    0       -10.011077      -272.4153     1.00000000
    2    0        -0.436278       -11.8717     1.00000000
    2    1        -0.132089        -3.5943     0.00000000

  Creating fixed part of basis set: Ionic, confined, hydrogenic.
 
  C                    hydrogenic:
 
  List of hydrogenic basis orbitals: 
    n    l      effective z      eigenvalue [eV]  inner max. [A]     outer max. [A]     outer radius [A]   
    2    1         1.700000        -9.8152           1.245706           1.245706           5.401630
    3    2         6.000000       -54.4226           0.792453           0.792453           4.178599
    2    0         4.900000       -81.6681           0.082559           0.562749           3.353238
    4    3         9.800000       -81.6681           0.863254           0.863254           4.028125
    3    1         5.200000       -40.8774           0.305389           1.215618           4.898362
    3    0         4.300000       -27.9508           0.091041           1.610311           5.401630
    5    4        14.400000      -112.8510           0.917666           0.917666           3.883070
    3    2         6.200000       -58.1113           0.763917           0.763917           4.077671
 

  Adding cutoff potential to free-atom effective potential.
  Creating atomic-like basis functions for current effective potential.

  Species C                   :

  List of atomic basis orbitals and eigenvalues:
    n    l      energy [Ha]    energy [eV]    outer radius [A]
    1    0       -10.049212      -273.4530       1.934409
    2    0        -0.504761       -13.7352       5.271162
    2    1        -0.193631        -5.2690       5.401630

  Assembling full basis from fixed parts.
  | Species C :   atomic orbital   1 s accepted.
  | Species C :    hydro orbital   2 s accepted.
  | Species C :   atomic orbital   2 s accepted.
  | Species C :    hydro orbital   3 s accepted.
  | Species C :    hydro orbital   3 p accepted.
  | Species C :   atomic orbital   2 p accepted.
  | Species C :    hydro orbital   2 p accepted.
  | Species C :    hydro orbital   3 d accepted.
  | Species C :    hydro orbital   3 d accepted.
  | Species C :    hydro orbital   4 f accepted.
  | Species C :    hydro orbital   5 g accepted.
 
  Basis size parameters after reduction:
  | Total number of radial functions:       11
  | Total number of basis functions :       78
 
  Testing on-site integration grid accuracy.
  |  Species  Function  <phi|h_atom|phi> (log., in eV)  <phi|h_atom|phi> (rad., in eV)
           1        1               -273.4529725981               -273.4529710451
           1        2                -10.7721037329                -10.7721022102
           1        3                 17.6044132585                 17.6044162052
           1        4                 53.7706460564                 53.7706913681
           1        5                 15.0973290351                 15.0973256011
           1        6                  3.8545134677                  3.8545724657
           1        7                 12.1156992586                 12.1182024423
           1        8                 29.4352039288                 29.4352041805
           1        9                 54.8741144697                 54.8740268719
           1       10                 59.3556032036                 59.3556031370
           1       11                 93.4551837140                 93.4551837996

  Preparing densities etc. for the partition functions (integrals / Hartree potential).

  Preparations completed.
  max(cpu_time)          :      0.161 s.
  Wall clock time (cpu1) :      0.161 s.
------------------------------------------------------------

------------------------------------------------------------
          Begin self-consistency loop: Initialization.

          Date     :  20220221, Time     :  151607.042
------------------------------------------------------------

  Initializing index lists of integration centers etc. from given atomic structure:
  Mapping all atomic coordinates to central unit cell.

  Initializing the k-points
          Using symmetry for reducing the k-points
  | k-points reduced from:        4 to        4
  | Number of k-points                             :         4
  The eigenvectors in the calculations are REAL.
  | Number of basis functions in the Hamiltonian integrals :      3472
  | Number of basis functions in a single unit cell        :        78
  | Number of centers in hartree potential         :       646
  | Number of centers in hartree multipole         :       548
  | Number of centers in electron density summation:       428
  | Number of centers in basis integrals           :       456
  | Number of centers in integrals                 :       136
  | Consuming         14 KiB for k_phase.
  | Number of super-cells :                 234
  | Size of matrix packed + index :      284874
  Using modified Scalapack Eigenvalue solver (ELPA)
  Checking for possible mapping of k-points to SMP-nodes
  Running on 1 SMP-nodes
  Mapping of k-points to SMP-nodes is *NOT* possible:
  | 4 k-points  : 1 SMP-nodes
 * The calculation will run, but some performance degradation might result.
 * Check the number of actual k-points above, and consider using a number
 * compute nodes that can be divided cleanly by the number of k points
 * (e.g., two k-points per node, two nodes per k-point, etc.).
  Using simple linear distribution as default method for k-point parallelism.
  * Using 8 tasks for Scalapack Eigenvalue solver.
  Detailed listing of tasks and assigned k-points:
   Task     0 k-point     1 on csky071
   Task     1 k-point     1 on csky071
   Task     2 k-point     2 on csky071
   Task     3 k-point     2 on csky071
   Task     4 k-point     3 on csky071
   Task     5 k-point     3 on csky071
   Task     6 k-point     4 on csky071
   Task     7 k-point     4 on csky071
  K-point:     1 Tasks:     2 split into      2 X      1 BLACS grid
  Calculating blocksize based on n_basis =           78 max_nprow =            2 max_npcol =            1
  Scalapack blocksize set to:           16
  Required Scalapack workspace - INTEGER:            1 REAL:             1
  Perform CPU consistency test for lattice for partition grid
  Perform CPU consistency test for map_to_center_cell_matrix for partition grid
  Partitioning the integration grid into batches with parallel hashing+maxmin method.
  | Number of batches:      496
  | Maximal batch size:     108
  | Minimal batch size:      50
  | Average batch size:      72.895
  | Standard deviation of batch sizes:      20.938

  Integration load balanced across     8 MPI tasks.
  Work distribution over tasks is as follows:
  Task     0 has       4522 integration points.
  Task     1 has       4521 integration points.
  Task     2 has       4485 integration points.
  Task     3 has       4502 integration points.
  Task     4 has       4502 integration points.
  Task     5 has       4538 integration points.
  Task     6 has       4549 integration points.
  Task     7 has       4537 integration points.
  Initializing partition tables, free-atom densities, potentials, etc. across the integration grid (initialize_grid_storage).
  | initialize_grid_storage: Actual outermost partition radius vs. multipole_radius_free
  | (-- VB: in principle, multipole_radius_free should be larger, hence this output)
  | Species        1: outer_partition_radius =              6.000000000000000 AA, multipole_radius_free =              6.029870734432609 AA.
  | Original list of interatomic distances with         456 x        456 entries is created.
  | Net number of integration points:    36156
  | of which are non-zero points    :    26826
  | Numerical average free-atom electrostatic potential    :     -6.92761138 eV
  Obtaining max. number of non-zero basis functions in each batch (get_n_compute_maxes).
  | Maximal number of non-zero basis functions:     1323 in task     0
  | Maximal number of non-zero basis functions:     1222 in task     1
  | Maximal number of non-zero basis functions:     1309 in task     2
  | Maximal number of non-zero basis functions:     1309 in task     3
  | Maximal number of non-zero basis functions:     1309 in task     4
  | Maximal number of non-zero basis functions:     1309 in task     5
  | Maximal number of non-zero basis functions:     1318 in task     6
  | Maximal number of non-zero basis functions:     1309 in task     7
  Integrating Hamiltonian matrix: batch-based integration.
  Time summed over all CPUs for integration: real work       14.349 s, elapsed       14.704 s
  Integrating overlap matrix.
  Time summed over all CPUs for integration: real work        5.972 s, elapsed        6.087 s
  Decreasing sparse matrix size:
   Tolerance:  9.999999824516700E-014
   Hamiltonian matrix
  | Array has   179225 nonzero elements out of   284874 elements
  | Sparsity factor is 0.371
   Overlap matrix
  | Array has   161147 nonzero elements out of   284874 elements
  | Sparsity factor is 0.434
  New size of hamiltonian matrix:      180040
  Not deallocating overlap matrix.

  Updating Kohn-Sham eigenvalues, eigenvectors, occupation numbers, and Fermi level.
  Solving generalized eigenproblem
  Solving real symmetric generalised eigenvalue problem by standard ScaLAPACK.
  Transforming overlap matrix with ScaLAPACK and checking for singularities.
  k-point        1: Overlap matrix is nonsingular, using Cholesky decomposition
  | Lowest eigenvalue:  0.153553E-03
  Factoring overlap matrix with Cholesky decomposition
  k-point        3: Overlap matrix is nonsingular, using Cholesky decomposition
  | Lowest eigenvalue:  0.952105E-04
  k-point        4: Overlap matrix is nonsingular, using Cholesky decomposition
  | Lowest eigenvalue:  0.952352E-04
  k-point        2: Overlap matrix is nonsingular, using Cholesky decomposition
  | Lowest eigenvalue:  0.952359E-04
  Using Cholesky factor for transformation
  Using 1-stage real ELPA solver
  Solving real symmetric generalised eigenvalue problem by standard ScaLAPACK.
  Using Cholesky factor for transformation
  Using 1-stage real ELPA solver
  Determining occupation numbers for Kohn-Sham eigenstates.
  | Chemical potential (Fermi level) in eV                 : -.85394479E+01
  | Error in electron count due to remaining E_F inaccuracy: 0.00000000E+00
  | Maximum occupation number of highest empty state:  0.00E+00

  Writing Kohn-Sham eigenvalues.

  Spin-up eigenvalues:
  K-point:       1 at    0.000000    0.000000    0.000000 (in units of recip. lattice)

  State    Occupation    Eigenvalue [Ha]    Eigenvalue [eV]
      1       1.00000         -10.181848         -277.06218
      2       1.00000         -10.180882         -277.03589
      3       1.00000          -1.102207          -29.99257
      4       1.00000          -0.620114          -16.87417
      5       1.00000          -0.528020          -14.36816
      6       1.00000          -0.528017          -14.36806
      7       0.00000          -0.085400           -2.32384
      8       0.00000          -0.085394           -2.32369
      9       0.00000          -0.024009           -0.65332
     10       0.00000           0.040709            1.10776
     11       0.00000           0.048401            1.31707

  Spin-down eigenvalues:
  K-point:       1 at    0.000000    0.000000    0.000000 (in units of recip. lattice)

  State    Occupation    Eigenvalue [Ha]    Eigenvalue [eV]
      1       1.00000         -10.149912         -276.19315
      2       1.00000         -10.148980         -276.16780
      3       1.00000          -0.975509          -26.54495
      4       1.00000          -0.506695          -13.78788
      5       1.00000          -0.396552          -10.79073
      6       1.00000          -0.396548          -10.79063
      7       0.00000           0.040540            1.10314
      8       0.00000           0.040544            1.10325
      9       0.00000           0.041938            1.14118
     10       0.00000           0.094711            2.57721
     11       0.00000           0.163747            4.45578

  Current spin moment of the entire structure :
  | N = N_up - N_down (sum over all k points):         0.00000
  | S (sum over all k points)                :         0.00000

  What follows are estimated values for band gap, HOMO, LUMO, etc.
  | They are estimated on a discrete k-point grid and not necessarily exact.
  | For converged numbers, create a DOS and/or band structure plot on a denser k-grid.

  Highest occupied state (VBM) at     -8.73314594 eV (relative to internal zero)
  | Occupation number:      1.00000000
  | K-point:       3 at    0.500000    0.000000    0.000000 (in units of recip. lattice)
  | Spin channel:        2

  Lowest unoccupied state (CBM) at    -7.73766560 eV (relative to internal zero)
  | Occupation number:      0.00000000
  | K-point:       2 at    0.000000    0.500000    0.000000 (in units of recip. lattice)
  | Spin channel:        1

  ESTIMATED overall HOMO-LUMO gap:      0.99548034 eV between HOMO at k-point 3 and LUMO at k-point 2
  | This appears to be an indirect band gap.
  | Smallest direct gap :      0.99548065 eV for k_point 2 at    0.000000    0.500000    0.000000 (in units of recip. lattice)
  | Direct gap HOMO spin channel :     2
  | Direct gap LUMO spin channel :     1
  The gap value is above 0.2 eV. Unless you are using a very sparse k-point grid,
  this system is most likely an insulator or a semiconductor.
  Calculating total energy contributions from superposition of free atom densities.

  Total energy components:
  | Sum of eigenvalues            :         -45.86728639 Ha       -1248.11236589 eV
  | XC energy correction          :         -10.83312258 Ha        -294.78426400 eV
  | XC potential correction       :          13.93338521 Ha         379.14670243 eV
  | Free-atom electrostatic energy:         -33.32004492 Ha        -906.68455390 eV
  | Hartree energy correction     :           0.00000000 Ha           0.00000000 eV
  | van der Waals energy corr.    :           0.00000000 Ha           0.00000000 eV
  | Entropy correction            :           0.00000000 Ha           0.00000000 eV
  | ---------------------------
  | Total energy                  :         -76.08706868 Ha       -2070.43448136 eV
  | Total energy, T -> 0          :         -76.08706868 Ha       -2070.43448136 eV  <-- do not rely on this value for anything but (periodic) metals
  | Electronic free energy        :         -76.08706868 Ha       -2070.43448136 eV

  Derived energy quantities:
  | Kinetic energy                :          76.25441994 Ha        2074.98834073 eV
  | Electrostatic energy          :        -141.50836603 Ha       -3850.63855809 eV
  | Energy correction for multipole
  | error in Hartree potential    :           0.00000000 Ha           0.00000000 eV
  | Sum of eigenvalues per atom                           :        -624.05618295 eV
  | Total energy (T->0) per atom                          :       -1035.21724068 eV  <-- do not rely on this value for anything but (periodic) metals
  | Electronic free energy per atom                       :       -1035.21724068 eV
  Initialize hartree_potential_storage
  Max. number of atoms included in rho_multipole:            2

  End scf initialization - timings             :  max(cpu_time)    wall_clock(cpu1)
  | Time for scf. initialization               :        3.100 s           3.107 s
  | Boundary condition initialization          :        0.070 s           0.069 s
  | Integration                                :        2.614 s           2.620 s
  | Solution of K.-S. eqns.                    :        0.006 s           0.006 s
  | Grid partitioning                          :        0.056 s           0.056 s
  | Preloading free-atom quantities on grid    :        0.005 s           0.005 s
  | Free-atom superposition energy             :        0.031 s           0.031 s
  | Total energy evaluation                    :        0.000 s           0.001 s
------------------------------------------------------------

------------------------------------------------------------
          Begin self-consistency iteration #    1

  Date     :  20220221, Time     :  151610.149
------------------------------------------------------------
  Evaluating new KS density using the density matrix
  Evaluating density matrix
  Evaluating density matrix
  Time summed over all CPUs for getting density from density matrix: real work       25.934 s, elapsed       26.438 s
  Integration grid: deviation in total charge (<rho> - N_e) =  -2.405867E-06
  | <rho_up-rho_dn> = N_up-N_dn =     -4.0000; <|rho_up-rho_dn|> =      4.0000
  Pulay mixing of updated and previous charge densities.

  Evaluating partitioned Hartree potential by multipole expansion.
  | Analytical far-field extrapolation by fixed multipoles:
  | Hartree multipole sum: apparent total charge =   0.362800E-03
  Summing up the Hartree potential.
  | Estimated reciprocal-space cutoff momentum G_max:         3.32253784 bohr^-1 .
  | Reciprocal lattice points for long-range Hartree potential:     150
  Time summed over all CPUs for potential: real work        2.077 s, elapsed        2.135 s
  | RMS charge density error from multipole expansion :   0.376070E-02
  | Average real-space part of the electrostatic potential :      0.14906786 eV

  Integrating Hamiltonian matrix: batch-based integration.
  Time summed over all CPUs for integration: real work       13.386 s, elapsed       13.617 s

  Updating Kohn-Sham eigenvalues, eigenvectors, occupation numbers, and Fermi level.
  Solving generalized eigenproblem
  Solving real symmetric generalised eigenvalue problem by standard ScaLAPACK.
  Using Cholesky factor for transformation
  Using 1-stage real ELPA solver
  Solving real symmetric generalised eigenvalue problem by standard ScaLAPACK.
  Using Cholesky factor for transformation
  Using 1-stage real ELPA solver
  Determining occupation numbers for Kohn-Sham eigenstates.
  | Chemical potential (Fermi level) in eV                 : -.66980935E+01
  | Error in electron count due to remaining E_F inaccuracy: 0.00000000E+00
  | Maximum occupation number of highest empty state:  0.00E+00

  Writing Kohn-Sham eigenvalues.

  Spin-up eigenvalues:
  K-point:       1 at    0.000000    0.000000    0.000000 (in units of recip. lattice)

  State    Occupation    Eigenvalue [Ha]    Eigenvalue [eV]
      1       1.00000         -10.050076         -273.47648
      2       1.00000         -10.049103         -273.44999
      3       1.00000          -1.009779          -27.47748
      4       1.00000          -0.553343          -15.05723
      5       1.00000          -0.412755          -11.23163
      6       1.00000          -0.412752          -11.23155
      7       0.00000          -0.010411           -0.28330
      8       0.00000           0.013648            0.37138
      9       0.00000           0.013653            0.37153
     10       0.00000           0.055705            1.51580
     11       0.00000           0.136126            3.70417

  Spin-down eigenvalues:
  K-point:       1 at    0.000000    0.000000    0.000000 (in units of recip. lattice)

  State    Occupation    Eigenvalue [Ha]    Eigenvalue [eV]
      1       1.00000         -10.030775         -272.95127
      2       1.00000         -10.029822         -272.92534
      3       1.00000          -0.920572          -25.05005
      4       1.00000          -0.472166          -12.84828
      5       1.00000          -0.329279           -8.96014
      6       1.00000          -0.329276           -8.96006
      7       0.00000           0.024049            0.65442
      8       0.00000           0.070134            1.90845
      9       0.00000           0.103529            2.81717
     10       0.00000           0.103534            2.81730
     11       0.00000           0.220678            6.00494

  Current spin moment of the entire structure :
  | N = N_up - N_down (sum over all k points):         0.00000
  | S (sum over all k points)                :         0.00000

  What follows are estimated values for band gap, HOMO, LUMO, etc.
  | They are estimated on a discrete k-point grid and not necessarily exact.
  | For converged numbers, create a DOS and/or band structure plot on a denser k-grid.

  Highest occupied state (VBM) at     -7.61463619 eV (relative to internal zero)
  | Occupation number:      1.00000000
  | K-point:       2 at    0.000000    0.500000    0.000000 (in units of recip. lattice)
  | Spin channel:        2

  Lowest unoccupied state (CBM) at    -5.76938183 eV (relative to internal zero)
  | Occupation number:      0.00000000
  | K-point:       2 at    0.000000    0.500000    0.000000 (in units of recip. lattice)
  | Spin channel:        1

  ESTIMATED overall HOMO-LUMO gap:      1.84525436 eV between HOMO at k-point 2 and LUMO at k-point 2
  | This appears to be a direct band gap.
  The gap value is above 0.2 eV. Unless you are using a very sparse k-point grid,
  this system is most likely an insulator or a semiconductor.

  Total energy components:
  | Sum of eigenvalues            :         -44.75880147 Ha       -1217.94895643 eV
  | XC energy correction          :         -10.83774740 Ha        -294.91011157 eV
  | XC potential correction       :          13.93142220 Ha         379.09328624 eV
  | Free-atom electrostatic energy:         -33.32004492 Ha        -906.68455390 eV
  | Hartree energy correction     :          -1.11436041 Ha         -30.32328950 eV
  | van der Waals energy corr.    :           0.00000000 Ha           0.00000000 eV
  | Entropy correction            :           0.00000000 Ha           0.00000000 eV
  | ---------------------------
  | Total energy                  :         -76.09953199 Ha       -2070.77362515 eV
  | Total energy, T -> 0          :         -76.09953199 Ha       -2070.77362515 eV  <-- do not rely on this value for anything but (periodic) metals
  | Electronic free energy        :         -76.09953199 Ha       -2070.77362515 eV

  Derived energy quantities:
  | Kinetic energy                :          76.39508734 Ha        2078.81609560 eV
  | Electrostatic energy          :        -141.65687193 Ha       -3854.67960918 eV
  | Energy correction for multipole
  | error in Hartree potential    :          -0.00559243 Ha          -0.15217772 eV
  | Sum of eigenvalues per atom                           :        -608.97447822 eV
  | Total energy (T->0) per atom                          :       -1035.38681258 eV  <-- do not rely on this value for anything but (periodic) metals
  | Electronic free energy per atom                       :       -1035.38681258 eV

  Self-consistency convergence accuracy:
  | Change of charge/spin density : 0.2578E+00 0.5205E+00
  | Change of sum of eigenvalues  : 0.3016E+02 eV
  | Change of total energy        : -.3391E+00 eV

  End self-consistency iteration #     1       :  max(cpu_time)    wall_clock(cpu1)
  | Time for this iteration                    :        5.490 s           5.503 s
  | Charge density update                      :        3.304 s           3.312 s
  | Density mixing & preconditioning           :        0.202 s           0.203 s
  | Hartree multipole update                   :        0.002 s           0.001 s
  | Hartree multipole summation                :        0.271 s           0.272 s
  | Integration                                :        1.705 s           1.709 s
  | Solution of K.-S. eqns.                    :        0.004 s           0.004 s
  | Total energy evaluation                    :        0.000 s           0.000 s
------------------------------------------------------------

------------------------------------------------------------
          Begin self-consistency iteration #    2

  Date     :  20220221, Time     :  151615.658
------------------------------------------------------------
  Evaluating new KS density using the density matrix
  Evaluating density matrix
  Evaluating density matrix
  Time summed over all CPUs for getting density from density matrix: real work       25.883 s, elapsed       26.356 s
  Integration grid: deviation in total charge (<rho> - N_e) =   3.628958E-04
  | <rho_up-rho_dn> = N_up-N_dn =     -2.7996; <|rho_up-rho_dn|> =      2.7996
  Pulay mixing of updated and previous charge densities.

  Evaluating partitioned Hartree potential by multipole expansion.
  | Analytical far-field extrapolation by fixed multipoles:
  | Hartree multipole sum: apparent total charge =   0.519296E-03
  Summing up the Hartree potential.
  Time summed over all CPUs for potential: real work        2.132 s, elapsed        2.192 s
  | RMS charge density error from multipole expansion :   0.960413E-02
  | Average real-space part of the electrostatic potential :      0.34032183 eV

  Integrating Hamiltonian matrix: batch-based integration.
  Time summed over all CPUs for integration: real work       13.510 s, elapsed       13.743 s

  Updating Kohn-Sham eigenvalues, eigenvectors, occupation numbers, and Fermi level.
  Solving generalized eigenproblem
  Solving real symmetric generalised eigenvalue problem by standard ScaLAPACK.
  Using Cholesky factor for transformation
  Using 1-stage real ELPA solver
  Solving real symmetric generalised eigenvalue problem by standard ScaLAPACK.
  Using Cholesky factor for transformation
  Using 1-stage real ELPA solver
  Determining occupation numbers for Kohn-Sham eigenstates.
  | Chemical potential (Fermi level) in eV                 : -.39641884E+01
  | Error in electron count due to remaining E_F inaccuracy: 0.00000000E+00
  | Maximum occupation number of highest empty state:  0.00E+00

  Current spin moment of the entire structure :
  | N = N_up - N_down (sum over all k points):         0.00000
  | S (sum over all k points)                :         0.00000

  What follows are estimated values for band gap, HOMO, LUMO, etc.
  | They are estimated on a discrete k-point grid and not necessarily exact.
  | For converged numbers, create a DOS and/or band structure plot on a denser k-grid.

  Highest occupied state (VBM) at     -6.95113062 eV (relative to internal zero)
  | Occupation number:      1.00000000
  | K-point:       2 at    0.000000    0.500000    0.000000 (in units of recip. lattice)
  | Spin channel:        2

  Lowest unoccupied state (CBM) at    -3.37114721 eV (relative to internal zero)
  | Occupation number:      0.00000000
  | K-point:       2 at    0.000000    0.500000    0.000000 (in units of recip. lattice)
  | Spin channel:        1

  ESTIMATED overall HOMO-LUMO gap:      3.57998340 eV between HOMO at k-point 2 and LUMO at k-point 2
  | This appears to be a direct band gap.
  The gap value is above 0.2 eV. Unless you are using a very sparse k-point grid,
  this system is most likely an insulator or a semiconductor.

  Total energy components:
  | Sum of eigenvalues            :         -43.62480949 Ha       -1187.09146481 eV
  | XC energy correction          :         -10.87380491 Ha        -295.89128633 eV
  | XC potential correction       :          13.97150669 Ha         380.18404050 eV
  | Free-atom electrostatic energy:         -33.32004492 Ha        -906.68455390 eV
  | Hartree energy correction     :          -2.29776242 Ha         -62.52529664 eV
  | van der Waals energy corr.    :           0.00000000 Ha           0.00000000 eV
  | Entropy correction            :           0.00000000 Ha           0.00000000 eV
  | ---------------------------
  | Total energy                  :         -76.14491505 Ha       -2072.00856118 eV
  | Total energy, T -> 0          :         -76.14491505 Ha       -2072.00856118 eV  <-- do not rely on this value for anything but (periodic) metals
  | Electronic free energy        :         -76.14491505 Ha       -2072.00856118 eV

  Derived energy quantities:
  | Kinetic energy                :          76.25643202 Ha        2075.04309240 eV
  | Electrostatic energy          :        -141.52754217 Ha       -3851.16036725 eV
  | Energy correction for multipole
  | error in Hartree potential    :          -0.01390770 Ha          -0.37844766 eV
  | Sum of eigenvalues per atom                           :        -593.54573240 eV
  | Total energy (T->0) per atom                          :       -1036.00428059 eV  <-- do not rely on this value for anything but (periodic) metals
  | Electronic free energy per atom                       :       -1036.00428059 eV

  Self-consistency convergence accuracy:
  | Change of charge/spin density : 0.1417E+00 0.3537E+00
  | Change of sum of eigenvalues  : 0.3086E+02 eV
  | Change of total energy        : -.1235E+01 eV

  End self-consistency iteration #     2       :  max(cpu_time)    wall_clock(cpu1)
  | Time for this iteration                    :        5.499 s           5.511 s
  | Charge density update                      :        3.293 s           3.300 s
  | Density mixing & preconditioning           :        0.201 s           0.201 s
  | Hartree multipole update                   :        0.002 s           0.002 s
  | Hartree multipole summation                :        0.278 s           0.279 s
  | Integration                                :        1.720 s           1.723 s
  | Solution of K.-S. eqns.                    :        0.004 s           0.004 s
  | Total energy evaluation                    :        0.000 s           0.001 s
------------------------------------------------------------

------------------------------------------------------------
          Begin self-consistency iteration #    3

  Date     :  20220221, Time     :  151621.171
------------------------------------------------------------
  Evaluating new KS density using the density matrix
  Evaluating density matrix
  Evaluating density matrix
  Time summed over all CPUs for getting density from density matrix: real work       25.794 s, elapsed       26.260 s
  Integration grid: deviation in total charge (<rho> - N_e) =   5.199965E-04
  | <rho_up-rho_dn> = N_up-N_dn =     -0.4813; <|rho_up-rho_dn|> =      0.4817
  Pulay mixing of updated and previous charge densities.

  Evaluating partitioned Hartree potential by multipole expansion.
  | Analytical far-field extrapolation by fixed multipoles:
  | Hartree multipole sum: apparent total charge =   0.219075E-03
  Summing up the Hartree potential.
  Time summed over all CPUs for potential: real work        2.126 s, elapsed        2.185 s
  | RMS charge density error from multipole expansion :   0.988100E-02
  | Average real-space part of the electrostatic potential :      0.32730678 eV

  Integrating Hamiltonian matrix: batch-based integration.
  Time summed over all CPUs for integration: real work       13.320 s, elapsed       13.558 s

  Updating Kohn-Sham eigenvalues, eigenvectors, occupation numbers, and Fermi level.
  Solving generalized eigenproblem
  Solving real symmetric generalised eigenvalue problem by standard ScaLAPACK.
  Using Cholesky factor for transformation
  Using 1-stage real ELPA solver
  Solving real symmetric generalised eigenvalue problem by standard ScaLAPACK.
  Using Cholesky factor for transformation
  Using 1-stage real ELPA solver
  Determining occupation numbers for Kohn-Sham eigenstates.
  | Chemical potential (Fermi level) in eV                 : -.46859109E+01
  | Error in electron count due to remaining E_F inaccuracy: 0.00000000E+00
  | Maximum occupation number of highest empty state:  0.00E+00

  Current spin moment of the entire structure :
  | N = N_up - N_down (sum over all k points):         0.00000
  | S (sum over all k points)                :         0.00000

  What follows are estimated values for band gap, HOMO, LUMO, etc.
  | They are estimated on a discrete k-point grid and not necessarily exact.
  | For converged numbers, create a DOS and/or band structure plot on a denser k-grid.

  Highest occupied state (VBM) at     -7.46707846 eV (relative to internal zero)
  | Occupation number:      1.00000000
  | K-point:       3 at    0.500000    0.000000    0.000000 (in units of recip. lattice)
  | Spin channel:        2

  Lowest unoccupied state (CBM) at    -3.51453415 eV (relative to internal zero)
  | Occupation number:      0.00000000
  | K-point:       2 at    0.000000    0.500000    0.000000 (in units of recip. lattice)
  | Spin channel:        1

  ESTIMATED overall HOMO-LUMO gap:      3.95254431 eV between HOMO at k-point 3 and LUMO at k-point 2
  | This appears to be an indirect band gap.
  | Smallest direct gap :      3.95256382 eV for k_point 2 at    0.000000    0.500000    0.000000 (in units of recip. lattice)
  | Direct gap HOMO spin channel :     2
  | Direct gap LUMO spin channel :     1
  The gap value is above 0.2 eV. Unless you are using a very sparse k-point grid,
  this system is most likely an insulator or a semiconductor.

  Total energy components:
  | Sum of eigenvalues            :         -43.90311321 Ha       -1194.66449443 eV
  | XC energy correction          :         -10.84173552 Ha        -295.01863379 eV
  | XC potential correction       :          13.92935191 Ha         379.03695064 eV
  | Free-atom electrostatic energy:         -33.32004492 Ha        -906.68455390 eV
  | Hartree energy correction     :          -2.01153521 Ha         -54.73665808 eV
  | van der Waals energy corr.    :           0.00000000 Ha           0.00000000 eV
  | Entropy correction            :           0.00000000 Ha           0.00000000 eV
  | ---------------------------
  | Total energy                  :         -76.14707695 Ha       -2072.06738956 eV
  | Total energy, T -> 0          :         -76.14707695 Ha       -2072.06738956 eV  <-- do not rely on this value for anything but (periodic) metals
  | Electronic free energy        :         -76.14707695 Ha       -2072.06738956 eV

  Derived energy quantities:
  | Kinetic energy                :          76.06854010 Ha        2069.93029301 eV
  | Electrostatic energy          :        -141.37388154 Ha       -3846.97904879 eV
  | Energy correction for multipole
  | error in Hartree potential    :          -0.01436976 Ha          -0.39102112 eV
  | Sum of eigenvalues per atom                           :        -597.33224722 eV
  | Total energy (T->0) per atom                          :       -1036.03369478 eV  <-- do not rely on this value for anything but (periodic) metals
  | Electronic free energy per atom                       :       -1036.03369478 eV

  Self-consistency convergence accuracy:
  | Change of charge/spin density : 0.3684E-01 0.5416E-01
  | Change of sum of eigenvalues  : -.7573E+01 eV
  | Change of total energy        : -.5883E-01 eV

  End self-consistency iteration #     3       :  max(cpu_time)    wall_clock(cpu1)
  | Time for this iteration                    :        5.458 s           5.470 s
  | Charge density update                      :        3.281 s           3.288 s
  | Density mixing & preconditioning           :        0.198 s           0.198 s
  | Hartree multipole update                   :        0.002 s           0.002 s
  | Hartree multipole summation                :        0.277 s           0.277 s
  | Integration                                :        1.695 s           1.698 s
  | Solution of K.-S. eqns.                    :        0.004 s           0.004 s
  | Total energy evaluation                    :        0.000 s           0.001 s
------------------------------------------------------------

------------------------------------------------------------
          Begin self-consistency iteration #    4

  Date     :  20220221, Time     :  151626.643
------------------------------------------------------------
  Evaluating new KS density using the density matrix
  Evaluating density matrix
  Evaluating density matrix
  Time summed over all CPUs for getting density from density matrix: real work       25.924 s, elapsed       26.411 s
  Integration grid: deviation in total charge (<rho> - N_e) =   2.197637E-04
  | <rho_up-rho_dn> = N_up-N_dn =     -0.1217; <|rho_up-rho_dn|> =      0.1292
  Pulay mixing of updated and previous charge densities.

  Evaluating partitioned Hartree potential by multipole expansion.
  | Analytical far-field extrapolation by fixed multipoles:
  | Hartree multipole sum: apparent total charge =   0.327540E-03
  Summing up the Hartree potential.
  Time summed over all CPUs for potential: real work        2.132 s, elapsed        2.191 s
  | RMS charge density error from multipole expansion :   0.976627E-02
  | Average real-space part of the electrostatic potential :      0.31760974 eV

  Integrating Hamiltonian matrix: batch-based integration.
  Time summed over all CPUs for integration: real work       13.548 s, elapsed       13.779 s

  Updating Kohn-Sham eigenvalues, eigenvectors, occupation numbers, and Fermi level.
  Solving generalized eigenproblem
  Solving real symmetric generalised eigenvalue problem by standard ScaLAPACK.
  Using Cholesky factor for transformation
  Using 1-stage real ELPA solver
  Solving real symmetric generalised eigenvalue problem by standard ScaLAPACK.
  Using Cholesky factor for transformation
  Using 1-stage real ELPA solver
  Determining occupation numbers for Kohn-Sham eigenstates.
  | Chemical potential (Fermi level) in eV                 : -.47228900E+01
  | Error in electron count due to remaining E_F inaccuracy: 0.00000000E+00
  | Maximum occupation number of highest empty state:  0.00E+00

  Current spin moment of the entire structure :
  | N = N_up - N_down (sum over all k points):         0.00000
  | S (sum over all k points)                :         0.00000

  What follows are estimated values for band gap, HOMO, LUMO, etc.
  | They are estimated on a discrete k-point grid and not necessarily exact.
  | For converged numbers, create a DOS and/or band structure plot on a denser k-grid.

  Highest occupied state (VBM) at     -7.59967809 eV (relative to internal zero)
  | Occupation number:      1.00000000
  | K-point:       3 at    0.500000    0.000000    0.000000 (in units of recip. lattice)
  | Spin channel:        2

  Lowest unoccupied state (CBM) at    -3.53993475 eV (relative to internal zero)
  | Occupation number:      0.00000000
  | K-point:       2 at    0.000000    0.500000    0.000000 (in units of recip. lattice)
  | Spin channel:        1

  ESTIMATED overall HOMO-LUMO gap:      4.05974334 eV between HOMO at k-point 3 and LUMO at k-point 2
  | This appears to be an indirect band gap.
  | Smallest direct gap :      4.05977212 eV for k_point 2 at    0.000000    0.500000    0.000000 (in units of recip. lattice)
  | Direct gap HOMO spin channel :     2
  | Direct gap LUMO spin channel :     1
  The gap value is above 0.2 eV. Unless you are using a very sparse k-point grid,
  this system is most likely an insulator or a semiconductor.

  Total energy components:
  | Sum of eigenvalues            :         -43.97097437 Ha       -1196.51109035 eV
  | XC energy correction          :         -10.83492000 Ha        -294.83317421 eV
  | XC potential correction       :          13.92062092 Ha         378.79936822 eV
  | Free-atom electrostatic energy:         -33.32004492 Ha        -906.68455390 eV
  | Hartree energy correction     :          -1.94198943 Ha         -52.84422100 eV
  | van der Waals energy corr.    :           0.00000000 Ha           0.00000000 eV
  | Entropy correction            :           0.00000000 Ha           0.00000000 eV
  | ---------------------------
  | Total energy                  :         -76.14730780 Ha       -2072.07367123 eV
  | Total energy, T -> 0          :         -76.14730780 Ha       -2072.07367123 eV  <-- do not rely on this value for anything but (periodic) metals
  | Electronic free energy        :         -76.14730780 Ha       -2072.07367123 eV

  Derived energy quantities:
  | Kinetic energy                :          76.04777322 Ha        2069.36519748 eV
  | Electrostatic energy          :        -141.36016102 Ha       -3846.60569450 eV
  | Energy correction for multipole
  | error in Hartree potential    :          -0.01426250 Ha          -0.38810247 eV
  | Sum of eigenvalues per atom                           :        -598.25554517 eV
  | Total energy (T->0) per atom                          :       -1036.03683562 eV  <-- do not rely on this value for anything but (periodic) metals
  | Electronic free energy per atom                       :       -1036.03683562 eV

  Self-consistency convergence accuracy:
  | Change of charge/spin density : 0.1025E-01 0.1525E-01
  | Change of sum of eigenvalues  : -.1847E+01 eV
  | Change of total energy        : -.6282E-02 eV

  End self-consistency iteration #     4       :  max(cpu_time)    wall_clock(cpu1)
  | Time for this iteration                    :        5.507 s           5.519 s
  | Charge density update                      :        3.299 s           3.306 s
  | Density mixing & preconditioning           :        0.198 s           0.199 s
  | Hartree multipole update                   :        0.002 s           0.001 s
  | Hartree multipole summation                :        0.278 s           0.279 s
  | Integration                                :        1.724 s           1.728 s
  | Solution of K.-S. eqns.                    :        0.004 s           0.005 s
  | Total energy evaluation                    :        0.000 s           0.001 s
------------------------------------------------------------

------------------------------------------------------------
          Begin self-consistency iteration #    5

  Date     :  20220221, Time     :  151632.167
------------------------------------------------------------
  Evaluating new KS density using the density matrix
  Evaluating density matrix
  Evaluating density matrix
  Time summed over all CPUs for getting density from density matrix: real work       25.876 s, elapsed       26.347 s
  Integration grid: deviation in total charge (<rho> - N_e) =   3.282081E-04
  | <rho_up-rho_dn> = N_up-N_dn =     -0.0115; <|rho_up-rho_dn|> =      0.0172
  Pulay mixing of updated and previous charge densities.

  Evaluating partitioned Hartree potential by multipole expansion.
  | Analytical far-field extrapolation by fixed multipoles:
  | Hartree multipole sum: apparent total charge =   0.249007E-03
  Summing up the Hartree potential.
  Time summed over all CPUs for potential: real work        2.125 s, elapsed        2.184 s
  | RMS charge density error from multipole expansion :   0.966733E-02
  | Average real-space part of the electrostatic potential :      0.31680766 eV

  Integrating Hamiltonian matrix: batch-based integration.
  Time summed over all CPUs for integration: real work       13.564 s, elapsed       13.784 s

  Updating Kohn-Sham eigenvalues, eigenvectors, occupation numbers, and Fermi level.
  Solving generalized eigenproblem
  Solving real symmetric generalised eigenvalue problem by standard ScaLAPACK.
  Using Cholesky factor for transformation
  Using 1-stage real ELPA solver
  Solving real symmetric generalised eigenvalue problem by standard ScaLAPACK.
  Using Cholesky factor for transformation
  Using 1-stage real ELPA solver
  Determining occupation numbers for Kohn-Sham eigenstates.
  | Chemical potential (Fermi level) in eV                 : -.47661519E+01
  | Error in electron count due to remaining E_F inaccuracy: 0.00000000E+00
  | Maximum occupation number of highest empty state:  0.00E+00

  Current spin moment of the entire structure :
  | N = N_up - N_down (sum over all k points):         0.00000
  | S (sum over all k points)                :         0.00000

  What follows are estimated values for band gap, HOMO, LUMO, etc.
  | They are estimated on a discrete k-point grid and not necessarily exact.
  | For converged numbers, create a DOS and/or band structure plot on a denser k-grid.

  Highest occupied state (VBM) at     -7.54738377 eV (relative to internal zero)
  | Occupation number:      1.00000000
  | K-point:       3 at    0.500000    0.000000    0.000000 (in units of recip. lattice)
  | Spin channel:        2

  Lowest unoccupied state (CBM) at    -3.48886415 eV (relative to internal zero)
  | Occupation number:      0.00000000
  | K-point:       2 at    0.000000    0.500000    0.000000 (in units of recip. lattice)
  | Spin channel:        1

  ESTIMATED overall HOMO-LUMO gap:      4.05851963 eV between HOMO at k-point 3 and LUMO at k-point 2
  | This appears to be an indirect band gap.
  | Smallest direct gap :      4.05854550 eV for k_point 2 at    0.000000    0.500000    0.000000 (in units of recip. lattice)
  | Direct gap HOMO spin channel :     2
  | Direct gap LUMO spin channel :     1
  The gap value is above 0.2 eV. Unless you are using a very sparse k-point grid,
  this system is most likely an insulator or a semiconductor.

  Total energy components:
  | Sum of eigenvalues            :         -43.93348114 Ha       -1195.49084764 eV
  | XC energy correction          :         -10.83866728 Ha        -294.93514272 eV
  | XC potential correction       :          13.92534615 Ha         378.92794851 eV
  | Free-atom electrostatic energy:         -33.32004492 Ha        -906.68455390 eV
  | Hartree energy correction     :          -1.98045713 Ha         -53.89098045 eV
  | van der Waals energy corr.    :           0.00000000 Ha           0.00000000 eV
  | Entropy correction            :           0.00000000 Ha           0.00000000 eV
  | ---------------------------
  | Total energy                  :         -76.14730431 Ha       -2072.07357619 eV
  | Total energy, T -> 0          :         -76.14730431 Ha       -2072.07357619 eV  <-- do not rely on this value for anything but (periodic) metals
  | Electronic free energy        :         -76.14730431 Ha       -2072.07357619 eV

  Derived energy quantities:
  | Kinetic energy                :          76.08087380 Ha        2070.26591000 eV
  | Electrostatic energy          :        -141.38951083 Ha       -3847.40434347 eV
  | Energy correction for multipole
  | error in Hartree potential    :          -0.01413999 Ha          -0.38476879 eV
  | Sum of eigenvalues per atom                           :        -597.74542382 eV
  | Total energy (T->0) per atom                          :       -1036.03678810 eV  <-- do not rely on this value for anything but (periodic) metals
  | Electronic free energy per atom                       :       -1036.03678810 eV

  Self-consistency convergence accuracy:
  | Change of charge/spin density : 0.3643E-02 0.2058E-02
  | Change of sum of eigenvalues  : 0.1020E+01 eV
  | Change of total energy        : 0.9504E-04 eV

  End self-consistency iteration #     5       :  max(cpu_time)    wall_clock(cpu1)
  | Time for this iteration                    :        5.498 s           5.507 s
  | Charge density update                      :        3.295 s           3.299 s
  | Density mixing & preconditioning           :        0.195 s           0.196 s
  | Hartree multipole update                   :        0.002 s           0.002 s
  | Hartree multipole summation                :        0.277 s           0.278 s
  | Integration                                :        1.723 s           1.727 s
  | Solution of K.-S. eqns.                    :        0.004 s           0.004 s
  | Total energy evaluation                    :        0.000 s           0.001 s
------------------------------------------------------------

------------------------------------------------------------
          Begin self-consistency iteration #    6

  Date     :  20220221, Time     :  151637.679
------------------------------------------------------------
  Evaluating new KS density using the density matrix
  Evaluating density matrix
  Evaluating density matrix
  Time summed over all CPUs for getting density from density matrix: real work       25.820 s, elapsed       26.301 s
  Integration grid: deviation in total charge (<rho> - N_e) =   2.496695E-04
  | <rho_up-rho_dn> = N_up-N_dn =     -0.0028; <|rho_up-rho_dn|> =      0.0039
  Pulay mixing of updated and previous charge densities.

  Evaluating partitioned Hartree potential by multipole expansion.
  | Analytical far-field extrapolation by fixed multipoles:
  | Hartree multipole sum: apparent total charge =   0.186936E-03
  Summing up the Hartree potential.
  Time summed over all CPUs for potential: real work        2.130 s, elapsed        2.189 s
  | RMS charge density error from multipole expansion :   0.965579E-02
  | Average real-space part of the electrostatic potential :      0.31702167 eV

  Integrating Hamiltonian matrix: batch-based integration.
  Time summed over all CPUs for integration: real work       13.538 s, elapsed       13.775 s

  Updating Kohn-Sham eigenvalues, eigenvectors, occupation numbers, and Fermi level.
  Solving generalized eigenproblem
  Solving real symmetric generalised eigenvalue problem by standard ScaLAPACK.
  Using Cholesky factor for transformation
  Using 1-stage real ELPA solver
  Solving real symmetric generalised eigenvalue problem by standard ScaLAPACK.
  Using Cholesky factor for transformation
  Using 1-stage real ELPA solver
  Determining occupation numbers for Kohn-Sham eigenstates.
  | Chemical potential (Fermi level) in eV                 : -.43107462E+01
  | Error in electron count due to remaining E_F inaccuracy: 0.00000000E+00
  | Maximum occupation number of highest empty state:  0.00E+00

  Current spin moment of the entire structure :
  | N = N_up - N_down (sum over all k points):         0.00000
  | S (sum over all k points)                :         0.00000

  What follows are estimated values for band gap, HOMO, LUMO, etc.
  | They are estimated on a discrete k-point grid and not necessarily exact.
  | For converged numbers, create a DOS and/or band structure plot on a denser k-grid.

  Highest occupied state (VBM) at     -7.54185519 eV (relative to internal zero)
  | Occupation number:      1.00000000
  | K-point:       3 at    0.500000    0.000000    0.000000 (in units of recip. lattice)
  | Spin channel:        2

  Lowest unoccupied state (CBM) at    -3.48240458 eV (relative to internal zero)
  | Occupation number:      0.00000000
  | K-point:       2 at    0.000000    0.500000    0.000000 (in units of recip. lattice)
  | Spin channel:        1

  ESTIMATED overall HOMO-LUMO gap:      4.05945061 eV between HOMO at k-point 3 and LUMO at k-point 2
  | This appears to be an indirect band gap.
  | Smallest direct gap :      4.05947684 eV for k_point 2 at    0.000000    0.500000    0.000000 (in units of recip. lattice)
  | Direct gap HOMO spin channel :     2
  | Direct gap LUMO spin channel :     1
  The gap value is above 0.2 eV. Unless you are using a very sparse k-point grid,
  this system is most likely an insulator or a semiconductor.

  Total energy components:
  | Sum of eigenvalues            :         -43.92885629 Ha       -1195.36499921 eV
  | XC energy correction          :         -10.83913879 Ha        -294.94797334 eV
  | XC potential correction       :          13.92594417 Ha         378.94422147 eV
  | Free-atom electrostatic energy:         -33.32004492 Ha        -906.68455390 eV
  | Hartree energy correction     :          -1.98520865 Ha         -54.02027592 eV
  | van der Waals energy corr.    :           0.00000000 Ha           0.00000000 eV
  | Entropy correction            :           0.00000000 Ha           0.00000000 eV
  | ---------------------------
  | Total energy                  :         -76.14730448 Ha       -2072.07358090 eV
  | Total energy, T -> 0          :         -76.14730448 Ha       -2072.07358090 eV  <-- do not rely on this value for anything but (periodic) metals
  | Electronic free energy        :         -76.14730448 Ha       -2072.07358090 eV

  Derived energy quantities:
  | Kinetic energy                :          76.08456123 Ha        2070.36625027 eV
  | Electrostatic energy          :        -141.39272692 Ha       -3847.49185783 eV
  | Energy correction for multipole
  | error in Hartree potential    :          -0.01412756 Ha          -0.38443036 eV
  | Sum of eigenvalues per atom                           :        -597.68249960 eV
  | Total energy (T->0) per atom                          :       -1036.03679045 eV  <-- do not rely on this value for anything but (periodic) metals
  | Electronic free energy per atom                       :       -1036.03679045 eV

  Self-consistency convergence accuracy:
  | Change of charge/spin density : 0.3972E-03 0.3877E-03
  | Change of sum of eigenvalues  : 0.1258E+00 eV
  | Change of total energy        : -.4710E-05 eV

  End self-consistency iteration #     6       :  max(cpu_time)    wall_clock(cpu1)
  | Time for this iteration                    :        5.488 s           5.499 s
  | Charge density update                      :        3.287 s           3.292 s
  | Density mixing & preconditioning           :        0.194 s           0.194 s
  | Hartree multipole update                   :        0.002 s           0.002 s
  | Hartree multipole summation                :        0.278 s           0.278 s
  | Integration                                :        1.722 s           1.726 s
  | Solution of K.-S. eqns.                    :        0.004 s           0.004 s
  | Total energy evaluation                    :        0.000 s           0.001 s
------------------------------------------------------------

------------------------------------------------------------
          Begin self-consistency iteration #    7

  Date     :  20220221, Time     :  151643.179
------------------------------------------------------------
  Evaluating new KS density using the density matrix
  Evaluating density matrix
  Evaluating density matrix
  Time summed over all CPUs for getting density from density matrix: real work       25.809 s, elapsed       26.275 s
  Integration grid: deviation in total charge (<rho> - N_e) =   1.875979E-04
  | <rho_up-rho_dn> = N_up-N_dn =     -0.0002; <|rho_up-rho_dn|> =      0.0008
  Pulay mixing of updated and previous charge densities.

  Evaluating partitioned Hartree potential by multipole expansion.
  | Analytical far-field extrapolation by fixed multipoles:
  | Hartree multipole sum: apparent total charge =   0.186691E-03
  Summing up the Hartree potential.
  Time summed over all CPUs for potential: real work        2.128 s, elapsed        2.186 s
  | RMS charge density error from multipole expansion :   0.965553E-02
  | Average real-space part of the electrostatic potential :      0.31702131 eV

  Integrating Hamiltonian matrix: batch-based integration.
  Time summed over all CPUs for integration: real work       13.295 s, elapsed       13.519 s

  Updating Kohn-Sham eigenvalues, eigenvectors, occupation numbers, and Fermi level.
  Solving generalized eigenproblem
  Solving real symmetric generalised eigenvalue problem by standard ScaLAPACK.
  Using Cholesky factor for transformation
  Using 1-stage real ELPA solver
  Solving real symmetric generalised eigenvalue problem by standard ScaLAPACK.
  Using Cholesky factor for transformation
  Using 1-stage real ELPA solver
  Determining occupation numbers for Kohn-Sham eigenstates.
  | Chemical potential (Fermi level) in eV                 : -.43102395E+01
  | Error in electron count due to remaining E_F inaccuracy: 0.00000000E+00
  | Maximum occupation number of highest empty state:  0.00E+00

  Current spin moment of the entire structure :
  | N = N_up - N_down (sum over all k points):         0.00000
  | S (sum over all k points)                :         0.00000

  What follows are estimated values for band gap, HOMO, LUMO, etc.
  | They are estimated on a discrete k-point grid and not necessarily exact.
  | For converged numbers, create a DOS and/or band structure plot on a denser k-grid.

  Highest occupied state (VBM) at     -7.54179601 eV (relative to internal zero)
  | Occupation number:      1.00000000
  | K-point:       3 at    0.500000    0.000000    0.000000 (in units of recip. lattice)
  | Spin channel:        2

  Lowest unoccupied state (CBM) at    -3.48229537 eV (relative to internal zero)
  | Occupation number:      0.00000000
  | K-point:       2 at    0.000000    0.500000    0.000000 (in units of recip. lattice)
  | Spin channel:        1

  ESTIMATED overall HOMO-LUMO gap:      4.05950065 eV between HOMO at k-point 3 and LUMO at k-point 2
  | This appears to be an indirect band gap.
  | Smallest direct gap :      4.05952692 eV for k_point 2 at    0.000000    0.500000    0.000000 (in units of recip. lattice)
  | Direct gap HOMO spin channel :     2
  | Direct gap LUMO spin channel :     1
  The gap value is above 0.2 eV. Unless you are using a very sparse k-point grid,
  this system is most likely an insulator or a semiconductor.

  Total energy components:
  | Sum of eigenvalues            :         -43.92881175 Ha       -1195.36378725 eV
  | XC energy correction          :         -10.83914354 Ha        -294.94810263 eV
  | XC potential correction       :          13.92595021 Ha         378.94438560 eV
  | Free-atom electrostatic energy:         -33.32004492 Ha        -906.68455390 eV
  | Hartree energy correction     :          -1.98525343 Ha         -54.02149441 eV
  | van der Waals energy corr.    :           0.00000000 Ha           0.00000000 eV
  | Entropy correction            :           0.00000000 Ha           0.00000000 eV
  | ---------------------------
  | Total energy                  :         -76.14730344 Ha       -2072.07355259 eV
  | Total energy, T -> 0          :         -76.14730344 Ha       -2072.07355259 eV  <-- do not rely on this value for anything but (periodic) metals
  | Electronic free energy        :         -76.14730344 Ha       -2072.07355259 eV

  Derived energy quantities:
  | Kinetic energy                :          76.08461380 Ha        2070.36768069 eV
  | Electrostatic energy          :        -141.39277370 Ha       -3847.49313065 eV
  | Energy correction for multipole
  | error in Hartree potential    :          -0.01412729 Ha          -0.38442305 eV
  | Sum of eigenvalues per atom                           :        -597.68189363 eV
  | Total energy (T->0) per atom                          :       -1036.03677629 eV  <-- do not rely on this value for anything but (periodic) metals
  | Electronic free energy per atom                       :       -1036.03677629 eV

  Self-consistency convergence accuracy:
  | Change of charge/spin density : 0.4120E-02 0.8402E-04
  | Change of sum of eigenvalues  : 0.1212E-02 eV
  | Change of total energy        : 0.2831E-04 eV

  End self-consistency iteration #     7       :  max(cpu_time)    wall_clock(cpu1)
  | Time for this iteration                    :        5.456 s           5.468 s
  | Charge density update                      :        3.282 s           3.289 s
  | Density mixing & preconditioning           :        0.196 s           0.197 s
  | Hartree multipole update                   :        0.002 s           0.002 s
  | Hartree multipole summation                :        0.278 s           0.278 s
  | Integration                                :        1.692 s           1.696 s
  | Solution of K.-S. eqns.                    :        0.004 s           0.005 s
  | Total energy evaluation                    :        0.000 s           0.001 s
------------------------------------------------------------

------------------------------------------------------------
          Begin self-consistency iteration #    8

  Date     :  20220221, Time     :  151648.650
------------------------------------------------------------
  Evaluating new KS density using the density matrix
  Evaluating density matrix
  Evaluating density matrix
  Time summed over all CPUs for getting density from density matrix: real work       25.932 s, elapsed       26.414 s
  Integration grid: deviation in total charge (<rho> - N_e) =   1.873528E-04
  | <rho_up-rho_dn> = N_up-N_dn =     -0.0002; <|rho_up-rho_dn|> =      0.0007
  Pulay mixing of updated and previous charge densities.

  Evaluating partitioned Hartree potential by multipole expansion.
  | Analytical far-field extrapolation by fixed multipoles:
  | Hartree multipole sum: apparent total charge =   0.103247E-03
  Summing up the Hartree potential.
  Time summed over all CPUs for potential: real work        2.125 s, elapsed        2.184 s
  | RMS charge density error from multipole expansion :   0.965030E-02
  | Average real-space part of the electrostatic potential :      0.31713136 eV

  Integrating Hamiltonian matrix: batch-based integration.
  Time summed over all CPUs for integration: real work       13.539 s, elapsed       13.772 s

  Updating Kohn-Sham eigenvalues, eigenvectors, occupation numbers, and Fermi level.
  Solving generalized eigenproblem
  Solving real symmetric generalised eigenvalue problem by standard ScaLAPACK.
  Using Cholesky factor for transformation
  Using 1-stage real ELPA solver
  Solving real symmetric generalised eigenvalue problem by standard ScaLAPACK.
  Using Cholesky factor for transformation
  Using 1-stage real ELPA solver
  Determining occupation numbers for Kohn-Sham eigenstates.
  | Chemical potential (Fermi level) in eV                 : -.46787870E+01
  | Error in electron count due to remaining E_F inaccuracy: 0.00000000E+00
  | Maximum occupation number of highest empty state:  0.00E+00

  Current spin moment of the entire structure :
  | N = N_up - N_down (sum over all k points):         0.00000
  | S (sum over all k points)                :         0.00000

  What follows are estimated values for band gap, HOMO, LUMO, etc.
  | They are estimated on a discrete k-point grid and not necessarily exact.
  | For converged numbers, create a DOS and/or band structure plot on a denser k-grid.

  Highest occupied state (VBM) at     -7.54318174 eV (relative to internal zero)
  | Occupation number:      1.00000000
  | K-point:       3 at    0.500000    0.000000    0.000000 (in units of recip. lattice)
  | Spin channel:        2

[...]
  | Free-atom electrostatic energy:         -33.32004492 Ha        -906.68455390 eV
  | Hartree energy correction     :          -1.98461518 Ha         -54.00412682 eV
  | van der Waals energy corr.    :           0.00000000 Ha           0.00000000 eV
  | Entropy correction            :           0.00000000 Ha           0.00000000 eV
  | ---------------------------
  | Total energy                  :         -76.14730324 Ha       -2072.07354710 eV
  | Total energy, T -> 0          :         -76.14730324 Ha       -2072.07354710 eV  <-- do not rely on this value for anything but (periodic) metals
  | Electronic free energy        :         -76.14730324 Ha       -2072.07354710 eV

  Derived energy quantities:
  | Kinetic energy                :          76.08455428 Ha        2070.36606094 eV
  | Electrostatic energy          :        -141.39275222 Ha       -3847.49254606 eV
  | Energy correction for multipole
  | error in Hartree potential    :          -0.01411640 Ha          -0.38412675 eV
  | Sum of eigenvalues per atom                           :        -597.69051282 eV
  | Total energy (T->0) per atom                          :       -1036.03677355 eV  <-- do not rely on this value for anything but (periodic) metals
  | Electronic free energy per atom                       :       -1036.03677355 eV

  Self-consistency convergence accuracy:
  | Change of charge/spin density : 0.5494E-06 0.2460E-06
  | Change of sum of eigenvalues  : -.1308E-03 eV
  | Change of total energy        : 0.6186E-07 eV

  End self-consistency iteration #    13       :  max(cpu_time)    wall_clock(cpu1)
  | Time for this iteration                    :        5.481 s           5.493 s
  | Charge density update                      :        3.294 s           3.302 s
  | Density mixing & preconditioning           :        0.194 s           0.195 s
  | Hartree multipole update                   :        0.002 s           0.001 s
  | Hartree multipole summation                :        0.277 s           0.278 s
  | Integration                                :        1.707 s           1.712 s
  | Solution of K.-S. eqns.                    :        0.004 s           0.004 s
  | Total energy evaluation                    :        0.000 s           0.000 s
------------------------------------------------------------

------------------------------------------------------------
          Begin self-consistency iteration #   14

  Date     :  20220221, Time     :  151721.653
------------------------------------------------------------
  Evaluating new KS density using the density matrix
  Evaluating density matrix
  Evaluating density matrix
  Time summed over all CPUs for getting density from density matrix: real work       25.806 s, elapsed       26.284 s
  Integration grid: deviation in total charge (<rho> - N_e) =  -2.579287E-07
  | <rho_up-rho_dn> = N_up-N_dn =      0.0000; <|rho_up-rho_dn|> =      0.0000
  Pulay mixing of updated and previous charge densities.

  Evaluating partitioned Hartree potential by multipole expansion.
  | Analytical far-field extrapolation by fixed multipoles:
  | Hartree multipole sum: apparent total charge =  -0.779713E-06
  Summing up the Hartree potential.
  Time summed over all CPUs for potential: real work        2.127 s, elapsed        2.187 s
  | RMS charge density error from multipole expansion :   0.964723E-02
  | Average real-space part of the electrostatic potential :      0.31738804 eV

  Integrating Hamiltonian matrix: batch-based integration.
  Time summed over all CPUs for integration: real work       13.526 s, elapsed       13.754 s

  Updating Kohn-Sham eigenvalues, eigenvectors, occupation numbers, and Fermi level.
  Solving generalized eigenproblem
  Solving real symmetric generalised eigenvalue problem by standard ScaLAPACK.
  Using Cholesky factor for transformation
  Using 1-stage real ELPA solver
  Solving real symmetric generalised eigenvalue problem by standard ScaLAPACK.
  Using Cholesky factor for transformation
  Using 1-stage real ELPA solver
  Determining occupation numbers for Kohn-Sham eigenstates.
  | Chemical potential (Fermi level) in eV                 : -.46128406E+01
  | Error in electron count due to remaining E_F inaccuracy: 0.00000000E+00
  | Maximum occupation number of highest empty state:  0.00E+00

  Current spin moment of the entire structure :
  | N = N_up - N_down (sum over all k points):         0.00000
  | S (sum over all k points)                :         0.00000

  What follows are estimated values for band gap, HOMO, LUMO, etc.
  | They are estimated on a discrete k-point grid and not necessarily exact.
  | For converged numbers, create a DOS and/or band structure plot on a denser k-grid.

  Highest occupied state (VBM) at     -7.54276490 eV (relative to internal zero)
  | Occupation number:      1.00000000
  | K-point:       3 at    0.500000    0.000000    0.000000 (in units of recip. lattice)
  | Spin channel:        2

  Lowest unoccupied state (CBM) at    -3.48295262 eV (relative to internal zero)
  | Occupation number:      0.00000000
  | K-point:       2 at    0.000000    0.500000    0.000000 (in units of recip. lattice)
  | Spin channel:        1

  ESTIMATED overall HOMO-LUMO gap:      4.05981228 eV between HOMO at k-point 3 and LUMO at k-point 2
  | This appears to be an indirect band gap.
  | Smallest direct gap :      4.05983867 eV for k_point 2 at    0.000000    0.500000    0.000000 (in units of recip. lattice)
  | Direct gap HOMO spin channel :     2
  | Direct gap LUMO spin channel :     1
  The gap value is above 0.2 eV. Unless you are using a very sparse k-point grid,
  this system is most likely an insulator or a semiconductor.

  Total energy components:
  | Sum of eigenvalues            :         -43.92944540 Ha       -1195.38102958 eV
  | XC energy correction          :         -10.83910527 Ha        -294.94706106 eV
  | XC potential correction       :          13.92590737 Ha         378.94322004 eV
  | Free-atom electrostatic energy:         -33.32004492 Ha        -906.68455390 eV
  | Hartree energy correction     :          -1.98461503 Ha         -54.00412260 eV
  | van der Waals energy corr.    :           0.00000000 Ha           0.00000000 eV
  | Entropy correction            :           0.00000000 Ha           0.00000000 eV
  | ---------------------------
  | Total energy                  :         -76.14730324 Ha       -2072.07354709 eV
  | Total energy, T -> 0          :         -76.14730324 Ha       -2072.07354709 eV  <-- do not rely on this value for anything but (periodic) metals
  | Electronic free energy        :         -76.14730324 Ha       -2072.07354709 eV

  Derived energy quantities:
  | Kinetic energy                :          76.08455451 Ha        2070.36606741 eV
  | Electrostatic energy          :        -141.39275249 Ha       -3847.49255344 eV
  | Energy correction for multipole
  | error in Hartree potential    :          -0.01411640 Ha          -0.38412668 eV
  | Sum of eigenvalues per atom                           :        -597.69051479 eV
  | Total energy (T->0) per atom                          :       -1036.03677355 eV  <-- do not rely on this value for anything but (periodic) metals
  | Electronic free energy per atom                       :       -1036.03677355 eV

  Self-consistency convergence accuracy:
  | Change of charge/spin density : 0.8331E-07 0.6335E-07
  | Change of sum of eigenvalues  : -.3934E-05 eV
  | Change of total energy        : 0.3191E-08 eV

  Preliminary charge convergence reached. Turning off preconditioner.

  Writing Kohn-Sham eigenvalues.

  Spin-up eigenvalues:
  K-point:       1 at    0.000000    0.000000    0.000000 (in units of recip. lattice)

  State    Occupation    Eigenvalue [Ha]    Eigenvalue [eV]
      1       1.00000          -9.953329         -270.84386
      2       1.00000          -9.952364         -270.81760
      3       1.00000          -0.907392          -24.69139
      4       1.00000          -0.472776          -12.86489
      5       1.00000          -0.296344           -8.06392
      6       1.00000          -0.296341           -8.06385
      7       0.00000           0.022795            0.62028
      8       0.00000           0.069302            1.88581
      9       0.00000           0.119983            3.26492
     10       0.00000           0.119990            3.26509
     11       0.00000           0.237913            6.47395

  Spin-down eigenvalues:
  K-point:       1 at    0.000000    0.000000    0.000000 (in units of recip. lattice)

  State    Occupation    Eigenvalue [Ha]    Eigenvalue [eV]
      1       1.00000          -9.953329         -270.84386
      2       1.00000          -9.952364         -270.81760
      3       1.00000          -0.907392          -24.69139
      4       1.00000          -0.472776          -12.86489
      5       1.00000          -0.296344           -8.06392
      6       1.00000          -0.296341           -8.06385
      7       0.00000           0.022795            0.62028
      8       0.00000           0.069302            1.88580
      9       0.00000           0.119983            3.26492
     10       0.00000           0.119990            3.26509
     11       0.00000           0.237913            6.47395

  Current spin moment of the entire structure :
  | N = N_up - N_down (sum over all k points):         0.00000
  | S (sum over all k points)                :         0.00000

  What follows are estimated values for band gap, HOMO, LUMO, etc.
  | They are estimated on a discrete k-point grid and not necessarily exact.
  | For converged numbers, create a DOS and/or band structure plot on a denser k-grid.

  Highest occupied state (VBM) at     -7.54276490 eV (relative to internal zero)
  | Occupation number:      1.00000000
  | K-point:       3 at    0.500000    0.000000    0.000000 (in units of recip. lattice)
  | Spin channel:        2

  Lowest unoccupied state (CBM) at    -3.48295262 eV (relative to internal zero)
  | Occupation number:      0.00000000
  | K-point:       2 at    0.000000    0.500000    0.000000 (in units of recip. lattice)
  | Spin channel:        1

  ESTIMATED overall HOMO-LUMO gap:      4.05981228 eV between HOMO at k-point 3 and LUMO at k-point 2
  | This appears to be an indirect band gap.
  | Smallest direct gap :      4.05983867 eV for k_point 2 at    0.000000    0.500000    0.000000 (in units of recip. lattice)
  | Direct gap HOMO spin channel :     2
  | Direct gap LUMO spin channel :     1
  The gap value is above 0.2 eV. Unless you are using a very sparse k-point grid,
  this system is most likely an insulator or a semiconductor.

  Self-consistency cycle converged.

  End self-consistency iteration #    14       :  max(cpu_time)    wall_clock(cpu1)
  | Time for this iteration                    :        5.480 s           5.494 s
  | Charge density update                      :        3.284 s           3.291 s
  | Density mixing                             :        0.193 s           0.193 s
  | Hartree multipole update                   :        0.002 s           0.002 s
  | Hartree multipole summation                :        0.277 s           0.278 s
  | Integration                                :        1.719 s           1.723 s
  | Solution of K.-S. eqns.                    :        0.004 s           0.004 s
  | Total energy evaluation                    :        0.000 s           0.001 s
------------------------------------------------------------
  Obtaining max. number of non-zero basis functions in each batch .
  Evaluating KS electron density on previously omitted grid points, using the density matrix.
  Evaluating density matrix
  Evaluating density matrix
  Evaluating non-empirical van der Waals correction (Tkatchenko/Scheffler 2009).
  Performing Hirshfeld analysis of fragment charges and moments.
  ----------------------------------------------------------------------
  | Atom     1: C
  |   Hirshfeld charge        :     -0.00004753
  |   Free atom volume        :     38.37861207
  |   Hirshfeld volume        :     31.62780304
  |   Hirshfeld spin moment   :     -0.00000005
  |   Hirshfeld dipole vector :     -0.00005651       0.00000010       0.00000002
  |   Hirshfeld dipole moment :      0.00005651
  |   Hirshfeld second moments:      0.10383750      -0.00000025       0.00000000
  |                                 -0.00000025       0.10362595      -0.00000000
  |                                  0.00000000      -0.00000000       0.27068365
  ----------------------------------------------------------------------
  | Atom     2: C
  |   Hirshfeld charge        :     -0.00004753
  |   Free atom volume        :     38.37861207
  |   Hirshfeld volume        :     31.62780304
  |   Hirshfeld spin moment   :     -0.00000005
  |   Hirshfeld dipole vector :      0.00005651      -0.00000010      -0.00000002
  |   Hirshfeld dipole moment :      0.00005651
  |   Hirshfeld second moments:      0.10383750      -0.00000025       0.00000000
  |                                 -0.00000025       0.10362595      -0.00000000
  |                                  0.00000000      -0.00000000       0.27068365
  ----------------------------------------------------------------------

  Converging periodic supercell size for vdw calculation.

  Total energy components:
  | Sum of eigenvalues            :         -43.92944540 Ha       -1195.38102958 eV
  | XC energy correction          :         -10.83910527 Ha        -294.94706106 eV
  | XC potential correction       :          13.92590737 Ha         378.94322004 eV
  | Free-atom electrostatic energy:         -33.32004492 Ha        -906.68455390 eV
  | Hartree energy correction     :          -1.98461503 Ha         -54.00412260 eV
  | van der Waals energy corr.    :          -0.00370198 Ha          -0.10073611 eV
  | Entropy correction            :           0.00000000 Ha           0.00000000 eV
  | ---------------------------
  | Total energy                  :         -76.15100522 Ha       -2072.17428320 eV
  | Total energy, T -> 0          :         -76.15100522 Ha       -2072.17428320 eV  <-- do not rely on this value for anything but (periodic) metals
  | Electronic free energy        :         -76.15100522 Ha       -2072.17428320 eV

  Derived energy quantities:
  | Kinetic energy                :          76.08455451 Ha        2070.36606741 eV
  | Electrostatic energy          :        -141.39275249 Ha       -3847.49255344 eV
  | Energy correction for multipole
  | error in Hartree potential    :          -0.01411640 Ha          -0.38412668 eV
  | Sum of eigenvalues per atom                           :        -597.69051479 eV
  | Total energy (T->0) per atom                          :       -1036.08714160 eV  <-- do not rely on this value for anything but (periodic) metals
  | Electronic free energy per atom                       :       -1036.08714160 eV
  Timings for VdW correction (Tkatchenko-Scheffler 2009 or later):
  | CPU time:        1.291 s, Wall clock time:        1.294 s.

  Energy and forces in a compact form:
  | Total energy uncorrected      :         -0.207217428320354E+04 eV
  | Total energy corrected        :         -0.207217428320354E+04 eV  <-- do not rely on this value for anything but (periodic) metals
  | Electronic free energy        :         -0.207217428320354E+04 eV

  ------------------------------------ 
  Start decomposition of the XC Energy 
  ------------------------------------ 
  Hartree-Fock part   :          0.000000000 Ha              0.000000000 eV
  ------------------------------------ 
  X Energy            :        -10.421134689 Ha           -283.573502940 eV
  C Energy GGA        :         -0.417970578 Ha            -11.373558119 eV
  Total XC Energy     :        -10.839105267 Ha           -294.947061059 eV
  LDA X and C from self-consistent density 
  X Energy LDA        :         -9.454021432 Ha           -257.257012254 eV
  C Energy LDA        :         -0.797406975 Ha            -21.698547804 eV
  ------------------------------------ 
  End decomposition of the XC Energy 
  ------------------------------------ 
  Post-scf processing of Kohn-Sham eigenvalues on a denser k-point grid.
  | Using dos_kgrid_factors to calculate post-scf total density of states.
  | Electron chemical potential:    -4.612840555219 eV.
  Integrating Hamiltonian matrix: batch-based integration.
  Time summed over all CPUs for integration: real work       13.546 s, elapsed       13.770 s
  Processing batch of k-points:     1     1     1
  Processing batch of k-points:     1     2     1
  Processing batch of k-points:     2     1     1
  Processing batch of k-points:     2     2     1
  | writing perturbative DOS (shifted by electron chemical potential) to file KS_dos_total.dat
  | writing perturbative DOS (raw data) to file KS_dos_total_raw.dat

------------------------------------------------------------------------------
  Final output of selected total energy values:

  The following output summarizes some interesting total energy values
  at the end of a run (AFTER all relaxation, molecular dynamics, etc.).

  | Total energy of the DFT / Hartree-Fock s.c.f. calculation      :          -2072.174283204 eV
  | Final zero-broadening corrected energy (caution - metals only) :          -2072.174283204 eV
  | For reference only, the value of 1 Hartree used in FHI-aims is :             27.211384500 eV

  Before relying on these values, please be sure to understand exactly which
  total energy value is referred to by a given number. Different objects may
  all carry the same name 'total energy'. Definitions:

  Total energy of the DFT / Hartree-Fock s.c.f. calculation:
  | Note that this energy does not include ANY quantities calculated after the
  | s.c.f. cycle, in particular not ANY RPA, MP2, etc. many-body perturbation terms.

  Final zero-broadening corrected energy:
  | For metallic systems only, a broadening of the occupation numbers at the Fermi
  | level can be extrapolated back to zero broadening by an electron-gas inspired
  | formula. For all systems that are not real metals, this value can be
  | meaningless and should be avoided.

------------------------------------------------------------------------------

------------------------------------------------------------
          Leaving FHI-aims.
          Date     :  20220221, Time     :  151730.298

          Computational steps:
          | Number of self-consistency cycles          :           14

          Detailed time accounting                     :  max(cpu_time)    wall_clock(cpu1)
          | Total time                                 :       83.146 s          83.477 s
          | Preparation time                           :        0.161 s           0.161 s
          | Grid partitioning                          :        0.056 s           0.056 s
          | Preloading free-atom quantities on grid    :        0.005 s           0.005 s
          | Free-atom superposition energy             :        0.031 s           0.031 s
          | Total time for integrations                :       26.612 s          26.673 s
          | Total time for solution of K.-S. equations :        0.061 s           0.064 s
          | Total time for density update              :       46.069 s          46.159 s
          | Total time for mixing & preconditioning    :        2.736 s           2.744 s
          | Total time for Hartree multipole update    :        0.022 s           0.021 s
          | Total time for Hartree multipole sum       :        3.877 s           3.887 s
          | Total time for total energy evaluation     :        0.003 s           0.012 s
          | Total time for scaled ZORA corrections     :        0.000 s           0.000 s
          | Total time for vdW correction              :        1.291 s           1.294 s

          Have a nice day.
------------------------------------------------------------
