  MPI-parallelism will be employed.
------------------------------------------------------------
          Invoking FHI-aims ...
          Version 052014
          Git rev. (modified): 096c982 Merge branch master of fhiaims:/pub/localo[...]
          Compiled on 2016/12/16 at 15:22:01 on host login02.hpc.iitd.ac.in.

          When using FHI-aims, please cite the following reference:

          Volker Blum, Ralf Gehrke, Felix Hanke, Paula Havu,
          Ville Havu, Xinguo Ren, Karsten Reuter, and Matthias Scheffler,
          'Ab Initio Molecular Simulations with Numeric Atom-Centered Orbitals: FHI-aims',
          Computer Physics Communications 180, 2175-2196 (2009)

          For any questions about FHI-aims, please visit the aimsclub website
          with its forums and wiki. Contributions to both the forums and the
          wiki are warmly encouraged - they are for you, and everyone is welcome there.

------------------------------------------------------------

  Date     :  20220120, Time     :  153759.474
  Time zero on CPU 1             :   0.123000000000000E-01  s.
  Internal wall clock time zero  :           411925079.474  s.

  Using        8 parallel tasks.
  Task        0 on host csky019 reporting.
  Task        1 on host csky019 reporting.
  Task        2 on host csky019 reporting.
  Task        3 on host csky019 reporting.
  Task        4 on host csky019 reporting.
  Task        5 on host csky019 reporting.
  Task        6 on host csky019 reporting.
  Task        7 on host csky019 reporting.

  Performing system and environment tests:
  | Environment variable OMP_NUM_THREADS correctly set to 1.
  | Stacksize not measured: no C compiler
  | Checking for scalapack...
  | Testing pdtran()...
  | All pdtran() tests passed.

  Obtaining array dimensions for all initial allocations:
  
  -----------------------------------------------------------------------
  Parsing control.in (first pass over file, find array dimensions only).
  The contents of control.in will be repeated verbatim below
  unless switched off by setting 'verbatim_writeout .false.' .
  in the first line of control.in .
  -----------------------------------------------------------------------
  
    xc               pbe
    spin             collinear
    default_initial_moment hund
    relativistic     atomic_zora scalar 1e-9
    occupation_type  gaussian 0.001
    charge        0
    vdw_correction_hirshfeld
    KS_method        scalapack_fast
    mixer            pulay
    charge_mix_param  0.4
    spin_mix_param    0.6
    sc_accuracy_rho  1E-4
    sc_accuracy_eev  1E-5
    sc_accuracy_etot 1E-5
    sc_iter_limit    100
    empty_states     10
  ################################################################################
  #
  #  FHI-aims code project
  # Volker Blum, Fritz Haber Institute Berlin, 2009
  #
  #  Suggested "tight" defaults for H atom (to be pasted into control.in file)
  #
  ################################################################################
    species        H
  #     global species definitions
      nucleus             1
      mass                1.00794
  #
      l_hartree           6
  #
      cut_pot             4.0  2.0  1.0
      basis_dep_cutoff    1e-4
  #
      radial_base         24 7.0
      radial_multiplier   2
      angular_grids       specified
        division   0.1930   50
        division   0.3175  110
        division   0.4293  194
        division   0.5066  302
        division   0.5626  434
  #      division   0.5922  590
  #      division   0.6227  974
  #      division   0.6868 1202
  #      outer_grid  770
        outer_grid  434
  ################################################################################
  #
  #  Definition of "minimal" basis
  #
  ################################################################################
  #     valence basis states
      valence      1  s   1.
  #     ion occupancy
      ion_occ      1  s   0.5
  ################################################################################
  #
  #  Suggested additional basis functions. For production calculations,
  #  uncomment them one after another (the most important basis functions are
  #  listed first).
  #
  #  Basis constructed for dimers: 0.5 A, 0.7 A, 1.0 A, 1.5 A, 2.5 A
  #
  ################################################################################
  #  "First tier" - improvements: -1014.90 meV to -62.69 meV
       hydro 2 s 2.1
       hydro 2 p 3.5
  #  "Second tier" - improvements: -12.89 meV to -1.83 meV
       hydro 1 s 0.85
       hydro 2 p 3.7
       hydro 2 s 1.2
       hydro 3 d 7
  #  "Third tier" - improvements: -0.25 meV to -0.12 meV
  #     hydro 4 f 11.2
  #     hydro 3 p 4.8
  #     hydro 4 d 9
  #     hydro 3 s 3.2
  ################################################################################
  #
  # For methods that use the localized form of the "resolution of identity" for
  # the two-electron Coulomb operator (RI_method LVL), particularly Hartree-Fock and
  # hybrid density functional calculations, the highest accuracy can be obtained by
  # uncommenting the line beginning with "for_aux"  below, thus adding an extra g radial
  # function to the construction of the product basis set for the expansion.
  # See Ref. New J. Phys. 17, 093020 (2015) for more information, particularly Figs. 1 and 6.
  #
  ################################################################################
  #
  # for_aux hydro 5 g 6.0
  
  -----------------------------------------------------------------------
  Completed first pass over input file control.in .
  -----------------------------------------------------------------------
  
  
  -----------------------------------------------------------------------
  Parsing geometry.in (first pass over file, find array dimensions only).
  The contents of geometry.in will be repeated verbatim below
  unless switched off by setting 'verbatim_writeout .false.' .
  in the first line of geometry.in .
  -----------------------------------------------------------------------
  
  atom 0 0 0 H
  atom 0 0 1 H
  
  -----------------------------------------------------------------------
  Completed first pass over input file geometry.in .
  -----------------------------------------------------------------------
  

  Basic array size parameters:
  | Number of species                 :        1
  | Number of atoms                   :        2
  | Max. basis fn. angular momentum   :        2
  | Max. atomic/ionic basis occupied n:        1
  | Max. number of basis fn. types    :        2
  | Max. radial fns per species/type  :        6
  | Max. logarithmic grid size        :     1131
  | Max. radial integration grid size :       49
  | Max. angular integration grid size:      434
  | Max. angular grid division number :        8
  | Radial grid for Hartree potential :     1131
  | Number of spin channels           :        2

------------------------------------------------------------
          Reading file control.in.
------------------------------------------------------------
  XC: Using PBE gradient-corrected functionals.
  Spin treatment: Spin density functional theory - collinear spins.
  Initial spin moment per atom set according to Hund's rules.
  Scalar relativistic treatment of kinetic energy: on-site free-atom approximation to ZORA.
  Occupation type: Gaussian broadening, width =   0.100000E-02 eV.
  Charge =   0.000000E+00: Neutral system requested explicitly.
  Using non-empirical van der Waals correction (Hirshfeld partitioning):
  Kohn-Sham eigenvalues and eigenfunctions calculated by the ELPA eigensolver library.
  Using pulay charge density mixing.
  Charge density mixing - mixing parameter:     0.4000
  Spin density mixing - mixing parameter:     0.6000
  Convergence accuracy of self-consistent charge density: 0.1000E-03
  Convergence accuracy of sum of eigenvalues: 0.1000E-04
  Convergence accuracy of total energy: 0.1000E-04
  Maximum number of s.-c. iterations  :   100
  Number of empty states per atom:       10
 
  Reading configuration options for species H                   .
  | Found nuclear charge :   1.0000
  | Found atomic mass :    1.00794000000000      amu
  | Found l_max for Hartree potential  :   6
  | Found cutoff potl. onset [A], width [A], scale factor :    4.00000    2.00000    1.00000
  | Threshold for basis-dependent cutoff potential is   0.100000E-03
  | Found data for basic radial integration grid :    24 points, outermost radius =    7.000 A
  | Found multiplier for basic radial grid :   2
  | Found angular grid specification: user-specified.
  | Specified grid contains     6 separate shells.
  | Check grid settings after all constraints further below.
  | Found free-atom valence shell :  1 s   1.000
  | No ionic wave fns used. Skipping ion_occ.
  | Found hydrogenic basis function :  2 s   2.100
  | Found hydrogenic basis function :  2 p   3.500
  | Found hydrogenic basis function :  1 s   0.850
  | Found hydrogenic basis function :  2 p   3.700
  | Found hydrogenic basis function :  2 s   1.200
  | Found hydrogenic basis function :  3 d   7.000
  Species H                   : Missing cutoff potential type.
  Defaulting to exp(1/x)/(1-x)^2 type cutoff potential.
  Species H : No 'logarithmic' tag. Using default grid for free atom:
  | Default logarithmic grid data [bohr] : 0.1000E-03 0.1000E+03 0.1012E+01
  Species H : On-site basis accuracy parameter (for Gram-Schmidt orthonormalisation) not specified.
  Using default value basis_acc =  0.1000000E-03.
  Species H                   : Using default innermost maximum threshold i_radial=  2 for radial functions.
  Species H                   : Default cutoff onset for free atom density etc. : 0.40000000E+01 AA.
  Species H                   : Basic radial grid will be enhanced according to radial_multiplier =   2, to contain    49 grid points.
 
  Finished reading input file 'control.in'. Consistency checks are next.
 
  Target number of points in a grid batch is not set. Defaulting to  100
  Method for grid partitioning is not set. Defaulting to parallel hash+maxmin partitioning.
  Batch size limit is not set. Defaulting to    200
  By default, will store active basis functions for each batch.
  If in need of memory, prune_basis_once .false. can be used to disable this option.
  communication_type for Hartree potential was not specified.
  Defaulting to calc_hartree .
  Pulay mixer: Number of relevant iterations not set.
  Defaulting to    8 iterations.
  Pulay mixer: Number of initial linear mixing iterations not set.
  Defaulting to    0 iterations.
  Work space size for distributed Hartree potential not set.
  Defaulting to   0.200000E+03 MB.
  Algorithm-dependent basis array size parameters:
  | n_max_pulay                         :        8
  Calculation of forces was not defined in control.in. No forces will be calculated.
  Geometry relaxation not requested: no relaxation will be performed.
  No accuracy limit for integral partition fn. given. Defaulting to 0.1000E-14.
  No threshold value for u(r) in integrations given. Defaulting to 0.1000E-05.
  No accuracy for occupation numbers given. Defaulting to 0.1000E-07.
  No threshold value for occupation numbers given. Defaulting to 0.0000E+00.
  No accuracy for fermi level given. Defaulting to 0.1000E-19.
  Maximum # of iterations to find E_F not set. Defaulting to  200.
  Will not use alltoall communication since running on < 1024 CPUs.
  Threshold for basis singularities not set.
  Default threshold for basis singularities: 0.1000E-04
  partition_type (choice of integration weights) for integrals was not specified.
  | Using a version of the partition function of Stratmann and coworkers ('stratmann_smoother').
  | At each grid point, the set of atoms used to build the partition table is smoothly restricted to
  | only those atoms whose free-atom density would be non-zero at that grid point.
  Partitioning for Hartree potential was not defined. Using partition_type for integrals.
  | Adjusted default value of keyword multip_moments_threshold to:       0.10000000E-11
  | This value may affect high angular momentum components of the Hartree potential in periodic systems.
  No q(lm)/r^(l+1) cutoff set for long-range Hartree potential.
  | Using default value of  0.100000E-09 .
  | Verify using the multipole_threshold keyword.
  Defaulting to new monopole extrapolation.
  Density update method: automatic selection selected.
------------------------------------------------------------


------------------------------------------------------------
          Reading geometry description geometry.in.
------------------------------------------------------------
  Input structure read successfully.
  The structure contains        2 atoms,  and a total of          2.000 electrons.

  Input geometry:
  | No unit cell requested.
  | Atomic structure:
  |       Atom                x [A]            y [A]            z [A]
  |    1: Species H              0.000000         0.000000         0.000000
  |    2: Species H              0.000000         0.000000         1.000000
  |

  | The smallest distance between any two atoms is         1.00000000 AA.
  |
  | The first atom of this pair is atom number                      1 .
  | The second atom of this pair is atom number                     2 .

  Initial moments and charges:
  |  Atom   Moment         Charge        Species
  |     1  (Hund's rule)   0.000000E+00   H
  |     2  (Hund's rule)   0.000000E+00   H

  Structure-dependent array size parameters: 
  | Number of distinct atom types in initial rho :        1
  | Maximum number of distinct radial functions  :        7
  | Maximum number of basis functions            :       30
  | Number of Kohn-Sham states (occupied + empty):       11
------------------------------------------------------------

------------------------------------------------------------
          Preparing all fixed parts of the calculation.
------------------------------------------------------------
  Determining machine precision:
    2.225073858507201E-308
  Setting up grids for atomic and cluster calculations.

  Creating wave function, potential, and density for free atoms.

  Species: H

  List of occupied orbitals and eigenvalues:
    n    l              occ      energy [Ha]    energy [eV]
    1    0           1.0000        -0.238386        -6.4868

  Spin-polarized or charged system:
  Charge density initialized according to selected moments and charges.

  Creating spin-polarized density from free atoms.

  Species: H
  Charge:   0.000000
  applying Hund's rules ...

  List of occupied orbitals and eigenvalues:
    n    l      energy [Ha]    energy [eV]    occupation
  Spin-up
    1    0        -0.278991        -7.5917     1.00000000
  Spin-down
    1    0         0.090850         2.4721     0.00000000

  Creating fixed part of basis set: Ionic, confined, hydrogenic.
 
  H                    hydrogenic:
 
  List of hydrogenic basis orbitals: 
    n    l      effective z      eigenvalue [eV]  inner max. [A]     outer max. [A]     outer radius [A]   
    2    0         2.100000       -14.9965           0.193243           1.317208           5.373006
    2    1         3.500000       -41.6672           0.602369           0.602369           4.056063
    1    0         0.850000        -9.8292           0.624871           0.624871           5.373006
    2    1         3.700000       -46.5653           0.573622           0.573622           3.910002
    2    0         1.200000        -4.5995           0.334980           2.228188           5.505995
    3    2         7.000000       -74.0753           0.680699           0.680699           3.769201
 

  Adding cutoff potential to free-atom effective potential.
  Creating atomic-like basis functions for current effective potential.

  Species H                   :

  List of atomic basis orbitals and eigenvalues:
    n    l      energy [Ha]    energy [eV]    outer radius [A]
    1    0        -0.238386        -6.4868       5.373006

  Assembling full basis from fixed parts.
  | Species H :   atomic orbital   1 s accepted.
  | Species H :    hydro orbital   2 s accepted.
  | Species H :    hydro orbital   1 s accepted.
  | Species H :    hydro orbital   2 s accepted.
  | Species H :    hydro orbital   2 p accepted.
  | Species H :    hydro orbital   2 p accepted.
  | Species H :    hydro orbital   3 d accepted.
 
  Basis size parameters after reduction:
  | Total number of radial functions:        7
  | Total number of basis functions :       30
 
  Testing on-site integration grid accuracy.
  |  Species  Function  <phi|h_atom|phi> (log., in eV)  <phi|h_atom|phi> (rad., in eV)
           1        1                 -6.4870767962                 -6.4871688290
           1        2                 13.5032046589                 13.5028982997
           1        3                 32.8195184817                 32.8119941656
           1        4                 33.8513856511                 33.7670005767 ***
           1        5                 28.8544614965                 28.8544615203
           1        6                 59.6326952547                 59.6327656460
           1        7                 60.2719308513                 60.2719305949
 * Note: Onsite integrals marked "***" above are less accurate than
 * onsite_accuracy_threshold =    0.03000 eV. Usually, this is harmless.
 * When in doubt, tighten the "radial" and/or "radial_multiplier" flags to check.

  Preparing densities etc. for the partition functions (integrals / Hartree potential).

  Preparations completed.
  max(cpu_time)          :      0.086 s.
  Wall clock time (cpu1) :      0.085 s.
------------------------------------------------------------

------------------------------------------------------------
          Begin self-consistency loop: Initialization.

          Date     :  20220120, Time     :  153759.661
------------------------------------------------------------

  Initializing index lists of integration centers etc. from given atomic structure:
  | Number of centers in hartree potential         :         2
  | Number of centers in hartree multipole         :         2
  | Number of centers in electron density summation:         2
  | Number of centers in basis integrals           :         2
  | Number of centers in integrals                 :         2
  Using modified Scalapack Eigenvalue solver (ELPA)
  * Using 8 tasks for Scalapack Eigenvalue solver.
  Detailed listing of tasks and assigned k-points:
  (for non-periodic systems, the "k-point" denotes an internal label only)
   Task     0 k-point     1 on csky019
   Task     1 k-point     1 on csky019
   Task     2 k-point     1 on csky019
   Task     3 k-point     1 on csky019
   Task     4 k-point     1 on csky019
   Task     5 k-point     1 on csky019
   Task     6 k-point     1 on csky019
   Task     7 k-point     1 on csky019
  Tasks:     8 split into      4 X      2 BLACS grid
  Calculating blocksize based on n_basis =           30 max_nprow =            4 max_npcol =            2
  Scalapack blocksize set to:            4
  Required Scalapack workspace - INTEGER:            1 REAL:             1
  Partitioning the integration grid into batches with parallel hashing+maxmin method.
  | Number of batches:      445
  | Maximal batch size:     198
  | Minimal batch size:      49
  | Average batch size:      64.944
  | Standard deviation of batch sizes:      18.522

  Integration load balanced across     8 MPI tasks.
  Work distribution over tasks is as follows:
  Task     0 has       3586 integration points.
  Task     1 has       3682 integration points.
  Task     2 has       3584 integration points.
  Task     3 has       3586 integration points.
  Task     4 has       3661 integration points.
  Task     5 has       3629 integration points.
  Task     6 has       3592 integration points.
  Task     7 has       3580 integration points.
  Initializing partition tables, free-atom densities, potentials, etc. across the integration grid (initialize_grid_storage).
  | initialize_grid_storage: Actual outermost partition radius vs. multipole_radius_free
  | (-- VB: in principle, multipole_radius_free should be larger, hence this output)
  | Species        1: outer_partition_radius =              6.000000000000000 AA, multipole_radius_free =              6.071692442739658 AA.
  | Original list of interatomic distances with           2 x          2 entries is created.
  | Net number of integration points:    28900
  | of which are non-zero points    :    27042
  Obtaining max. number of non-zero basis functions in each batch (get_n_compute_maxes).
  | Maximal number of non-zero basis functions:       30 in task     0
  | Maximal number of non-zero basis functions:       30 in task     1
  | Maximal number of non-zero basis functions:       30 in task     2
  | Maximal number of non-zero basis functions:       30 in task     3
  | Maximal number of non-zero basis functions:       30 in task     4
  | Maximal number of non-zero basis functions:       30 in task     5
  | Maximal number of non-zero basis functions:       30 in task     6
  | Maximal number of non-zero basis functions:       30 in task     7
  Selecting the method for density update.
  Loop over occupied states selected for charge density update.
  Integrating Hamiltonian matrix: batch-based integration.
  Time summed over all CPUs for integration: real work        0.086 s, elapsed        0.106 s
  Integrating overlap matrix.
  Time summed over all CPUs for integration: real work        0.024 s, elapsed        0.027 s
  Deallocating overlap matrix.

  Updating Kohn-Sham eigenvalues, eigenvectors, occupation numbers, and Fermi level.
  Solving generalized eigenproblem
  Solving real symmetric generalised eigenvalue problem by standard ScaLAPACK.
  Transforming overlap matrix with ScaLAPACK and checking for singularities.
  : Overlap matrix is nonsingular, using Cholesky decomposition
  | Lowest eigenvalue:  0.139724E-02
  Factoring overlap matrix with Cholesky decomposition
  Using Cholesky factor for transformation
  Using 1-stage real ELPA solver
  Solving real symmetric generalised eigenvalue problem by standard ScaLAPACK.
  Using Cholesky factor for transformation
  Using 1-stage real ELPA solver
  Determining occupation numbers for Kohn-Sham eigenstates.
  | Chemical potential (Fermi level) in eV                 : -.15593699E+01
  | Error in electron count due to remaining E_F inaccuracy: 0.00000000E+00
  | Maximum occupation number of highest empty state:  0.00E+00

  Writing Kohn-Sham eigenvalues.

  Spin-up eigenvalues:

  State    Occupation    Eigenvalue [Ha]    Eigenvalue [eV]
      1       1.00000          -0.491176          -13.36559
      2       1.00000          -0.111988           -3.04734
      3       0.00000           0.017893            0.48688
      4       0.00000           0.085562            2.32825
      5       0.00000           0.221378            6.02401
      6       0.00000           0.221378            6.02401
      7       0.00000           0.329133            8.95616
      8       0.00000           0.414810           11.28756
      9       0.00000           0.575757           15.66714
     10       0.00000           0.618902           16.84119
     11       0.00000           0.618902           16.84119

  Spin-down eigenvalues:

  State    Occupation    Eigenvalue [Ha]    Eigenvalue [eV]
      1       0.00000           0.099420            2.70536
      2       0.00000           0.115908            3.15401
      3       0.00000           0.503871           13.71103
      4       0.00000           0.544948           14.82878
      5       0.00000           1.121366           30.51392
      6       0.00000           1.121366           30.51392
      7       0.00000           1.305604           35.52728
      8       0.00000           1.484383           40.39211
      9       0.00000           1.484383           40.39211
     10       0.00000           1.515024           41.22589
     11       0.00000           1.601611           43.58204

  Current spin moment of the entire structure :
  | N = N_up - N_down :    2.00
  | S                 :    1.00
  | J                 :    3.00

  Highest occupied state (VBM) at     -3.04734392 eV
  | Occupation number:      1.00000000
  | Spin channel:        1

  Lowest unoccupied state (CBM) at     0.48688224 eV
  | Occupation number:      0.00000000
  | Spin channel:        1

  Overall HOMO-LUMO gap:      3.53422617 eV.
  Calculating total energy contributions from superposition of free atom densities.

  Total energy components:
  | Sum of eigenvalues            :          -0.60316405 Ha         -16.41292899 eV
  | XC energy correction          :          -0.66194434 Ha         -18.01242187 eV
  | XC potential correction       :           0.85284274 Ha          23.20703167 eV
  | Free-atom electrostatic energy:          -0.47205878 Ha         -12.84537309 eV
  | Hartree energy correction     :           0.00000000 Ha           0.00000000 eV
  | van der Waals energy corr.    :           0.00000000 Ha           0.00000000 eV
  | Entropy correction            :           0.00000000 Ha           0.00000000 eV
  | ---------------------------
  | Total energy                  :          -0.88432444 Ha         -24.06369227 eV
  | Total energy, T -> 0          :          -0.88432444 Ha         -24.06369227 eV  <-- do not rely on this value for anything but (periodic) metals
  | Electronic free energy        :          -0.88432444 Ha         -24.06369227 eV

  Derived energy quantities:
  | Kinetic energy                :           1.10293232 Ha          30.01231555 eV
  | Electrostatic energy          :          -1.32531242 Ha         -36.06358595 eV
  | Energy correction for multipole
  | error in Hartree potential    :           0.00000000 Ha           0.00000000 eV
  | Sum of eigenvalues per atom                           :          -8.20646449 eV
  | Total energy (T->0) per atom                          :         -12.03184613 eV  <-- do not rely on this value for anything but (periodic) metals
  | Electronic free energy per atom                       :         -12.03184613 eV
  Initialize hartree_potential_storage
  Max. number of atoms included in rho_multipole:            2

  End scf initialization - timings             :  max(cpu_time)    wall_clock(cpu1)
  | Time for scf. initialization               :        0.049 s           0.048 s
  | Boundary condition initialization          :        0.000 s           0.000 s
  | Integration                                :        0.017 s           0.017 s
  | Solution of K.-S. eqns.                    :        0.009 s           0.010 s
  | Grid partitioning                          :        0.008 s           0.008 s
  | Preloading free-atom quantities on grid    :        0.004 s           0.004 s
  | Free-atom superposition energy             :        0.003 s           0.003 s
  | Total energy evaluation                    :        0.000 s           0.001 s
------------------------------------------------------------

------------------------------------------------------------
          Begin self-consistency iteration #    1

  Date     :  20220120, Time     :  153759.709
------------------------------------------------------------
  Evaluating new KS density.
  Integration grid: deviation in total charge (<rho> - N_e) =   3.478479E-07
  | <rho_up-rho_dn> = N_up-N_dn =      2.0000; <|rho_up-rho_dn|> =      2.0406
  Pulay mixing of updated and previous charge densities.

  Evaluating partitioned Hartree potential by multipole expansion.
  | Analytical far-field extrapolation by fixed multipoles:
  | Hartree multipole sum: apparent total charge =  -0.231766E-05
  Summing up the Hartree potential.
  Time summed over all CPUs for potential: real work        0.035 s, elapsed        0.040 s
  | RMS charge density error from multipole expansion :   0.531648E-03

  Integrating Hamiltonian matrix: batch-based integration.
  Time summed over all CPUs for integration: real work        0.067 s, elapsed        0.072 s

  Updating Kohn-Sham eigenvalues, eigenvectors, occupation numbers, and Fermi level.
  Solving generalized eigenproblem
  Solving real symmetric generalised eigenvalue problem by standard ScaLAPACK.
  Using Cholesky factor for transformation
  Using 1-stage real ELPA solver
  Solving real symmetric generalised eigenvalue problem by standard ScaLAPACK.
  Using Cholesky factor for transformation
  Using 1-stage real ELPA solver
  Determining occupation numbers for Kohn-Sham eigenstates.
  | Chemical potential (Fermi level) in eV                 : -.18982299E+01
  | Error in electron count due to remaining E_F inaccuracy: 0.00000000E+00
  | Maximum occupation number of highest empty state:  0.00E+00

  Writing Kohn-Sham eigenvalues.

  Spin-up eigenvalues:

  State    Occupation    Eigenvalue [Ha]    Eigenvalue [eV]
      1       1.00000          -0.316204           -8.60435
      2       0.00000           0.073907            2.01111
      3       0.00000           0.076984            2.09485
      4       0.00000           0.203553            5.53896
      5       0.00000           0.293796            7.99459
      6       0.00000           0.293796            7.99459
      7       0.00000           0.410045           11.15788
      8       0.00000           0.597365           16.25513
      9       0.00000           0.762300           20.74324
     10       0.00000           0.762300           20.74324
     11       0.00000           0.800135           21.77279

  Spin-down eigenvalues:

  State    Occupation    Eigenvalue [Ha]    Eigenvalue [eV]
      1       1.00000          -0.156239           -4.25149
      2       0.00000           0.090045            2.45024
      3       0.00000           0.099283            2.70162
      4       0.00000           0.249298            6.78375
      5       0.00000           0.398110           10.83312
      6       0.00000           0.398110           10.83312
      7       0.00000           0.485335           13.20663
      8       0.00000           0.678581           18.46514
      9       0.00000           0.830936           22.61092
     10       0.00000           0.845206           22.99922
     11       0.00000           0.845206           22.99922

  Current spin moment of the entire structure :
  | N = N_up - N_down :    0.00
  | S                 :    0.00
  | J                 :    1.00

  Highest occupied state (VBM) at     -4.25149148 eV
  | Occupation number:      1.00000000
  | Spin channel:        2

  Lowest unoccupied state (CBM) at     2.01111498 eV
  | Occupation number:      0.00000000
  | Spin channel:        1

  Overall HOMO-LUMO gap:      6.26260647 eV.

  Total energy components:
  | Sum of eigenvalues            :          -0.47244363 Ha         -12.85584531 eV
  | XC energy correction          :          -0.33318257 Ha          -9.06635906 eV
  | XC potential correction       :           0.42868968 Ha          11.66523958 eV
  | Free-atom electrostatic energy:          -0.47205878 Ha         -12.84537309 eV
  | Hartree energy correction     :          -0.02341290 Ha          -0.63709734 eV
  | van der Waals energy corr.    :           0.00000000 Ha           0.00000000 eV
  | Entropy correction            :           0.00000000 Ha           0.00000000 eV
  | ---------------------------
  | Total energy                  :          -0.87240821 Ha         -23.73943520 eV
  | Total energy, T -> 0          :          -0.87240821 Ha         -23.73943520 eV  <-- do not rely on this value for anything but (periodic) metals
  | Electronic free energy        :          -0.87240821 Ha         -23.73943520 eV

  Derived energy quantities:
  | Kinetic energy                :           0.85452887 Ha          23.25291374 eV
  | Electrostatic energy          :          -1.39375451 Ha         -37.92598989 eV
  | Energy correction for multipole
  | error in Hartree potential    :          -0.00013471 Ha          -0.00366573 eV
  | Sum of eigenvalues per atom                           :          -6.42792265 eV
  | Total energy (T->0) per atom                          :         -11.86971760 eV  <-- do not rely on this value for anything but (periodic) metals
  | Electronic free energy per atom                       :         -11.86971760 eV

  Self-consistency convergence accuracy:
  | Change of charge/spin density : 0.3703E-01 0.3703E-01
  | Change of sum of eigenvalues  : 0.3557E+01 eV
  | Change of total energy        : 0.3243E+00 eV

  End self-consistency iteration #     1       :  max(cpu_time)    wall_clock(cpu1)
  | Time for this iteration                    :        0.029 s           0.029 s
  | Charge density update                      :        0.008 s           0.008 s
  | Density mixing                             :        0.001 s           0.001 s
  | Hartree multipole update                   :        0.001 s           0.002 s
  | Hartree multipole summation                :        0.006 s           0.006 s
  | Integration                                :        0.009 s           0.009 s
  | Solution of K.-S. eqns.                    :        0.001 s           0.002 s
  | Total energy evaluation                    :        0.000 s           0.000 s
------------------------------------------------------------

------------------------------------------------------------
          Begin self-consistency iteration #    2

  Date     :  20220120, Time     :  153759.740
------------------------------------------------------------
  Evaluating new KS density.
  Integration grid: deviation in total charge (<rho> - N_e) =   2.087088E-07
  | <rho_up-rho_dn> = N_up-N_dn =     -2.0000; <|rho_up-rho_dn|> =      2.0000
  Pulay mixing of updated and previous charge densities.

  Evaluating partitioned Hartree potential by multipole expansion.
  | Analytical far-field extrapolation by fixed multipoles:
  | Hartree multipole sum: apparent total charge =  -0.228172E-05
  Summing up the Hartree potential.
  Time summed over all CPUs for potential: real work        0.033 s, elapsed        0.034 s
  | RMS charge density error from multipole expansion :   0.489584E-03

  Integrating Hamiltonian matrix: batch-based integration.
  Time summed over all CPUs for integration: real work        0.069 s, elapsed        0.073 s

  Updating Kohn-Sham eigenvalues, eigenvectors, occupation numbers, and Fermi level.
  Solving generalized eigenproblem
  Solving real symmetric generalised eigenvalue problem by standard ScaLAPACK.
  Using Cholesky factor for transformation
  Using 1-stage real ELPA solver
  Solving real symmetric generalised eigenvalue problem by standard ScaLAPACK.
  Using Cholesky factor for transformation
  Using 1-stage real ELPA solver
  Determining occupation numbers for Kohn-Sham eigenstates.
  | Chemical potential (Fermi level) in eV                 : -.50409586E+01
  | Error in electron count due to remaining E_F inaccuracy: 0.00000000E+00
  | Maximum occupation number of highest empty state:  0.00E+00

  Current spin moment of the entire structure :
  | N = N_up - N_down :    0.00
  | S                 :    0.00
  | J                 :    1.00

  Highest occupied state (VBM) at     -6.32897767 eV
  | Occupation number:      1.00000000
  | Spin channel:        2

  Lowest unoccupied state (CBM) at    -0.23842493 eV
  | Occupation number:      0.00000000
  | Spin channel:        1

  Overall HOMO-LUMO gap:      6.09055273 eV.

  Total energy components:
  | Sum of eigenvalues            :          -0.67676874 Ha         -18.41581447 eV
  | XC energy correction          :          -0.55975004 Ha         -15.23157353 eV
  | XC potential correction       :           0.72251438 Ha          19.66061659 eV
  | Free-atom electrostatic energy:          -0.47205878 Ha         -12.84537309 eV
  | Hartree energy correction     :          -0.02475959 Ha          -0.67374263 eV
  | van der Waals energy corr.    :           0.00000000 Ha           0.00000000 eV
  | Entropy correction            :           0.00000000 Ha           0.00000000 eV
  | ---------------------------
  | Total energy                  :          -1.01082277 Ha         -27.50588712 eV
  | Total energy, T -> 0          :          -1.01082277 Ha         -27.50588712 eV  <-- do not rely on this value for anything but (periodic) metals
  | Electronic free energy        :          -1.01082277 Ha         -27.50588712 eV

  Derived energy quantities:
  | Kinetic energy                :           0.94110858 Ha          25.60886753 eV
  | Electrostatic energy          :          -1.39218132 Ha         -37.88318112 eV
  | Energy correction for multipole
  | error in Hartree potential    :          -0.00012889 Ha          -0.00350729 eV
  | Sum of eigenvalues per atom                           :          -9.20790723 eV
  | Total energy (T->0) per atom                          :         -13.75294356 eV  <-- do not rely on this value for anything but (periodic) metals
  | Electronic free energy per atom                       :         -13.75294356 eV

  Self-consistency convergence accuracy:
  | Change of charge/spin density : 0.1171E+00 0.2801E+00
  | Change of sum of eigenvalues  : -.5560E+01 eV
  | Change of total energy        : -.3766E+01 eV

  End self-consistency iteration #     2       :  max(cpu_time)    wall_clock(cpu1)
  | Time for this iteration                    :        0.025 s           0.025 s
  | Charge density update                      :        0.006 s           0.006 s
  | Density mixing                             :        0.001 s           0.001 s
  | Hartree multipole update                   :        0.001 s           0.002 s
  | Hartree multipole summation                :        0.005 s           0.004 s
  | Integration                                :        0.009 s           0.009 s
  | Solution of K.-S. eqns.                    :        0.001 s           0.002 s
  | Total energy evaluation                    :        0.000 s           0.001 s
------------------------------------------------------------

------------------------------------------------------------
          Begin self-consistency iteration #    3

  Date     :  20220120, Time     :  153759.770
------------------------------------------------------------
  Evaluating new KS density.
  Integration grid: deviation in total charge (<rho> - N_e) =   2.034394E-07
  | <rho_up-rho_dn> = N_up-N_dn =     -1.9243; <|rho_up-rho_dn|> =      1.9243
  Pulay mixing of updated and previous charge densities.

  Evaluating partitioned Hartree potential by multipole expansion.
  | Analytical far-field extrapolation by fixed multipoles:
  | Hartree multipole sum: apparent total charge =  -0.234721E-05
  Summing up the Hartree potential.
  Time summed over all CPUs for potential: real work        0.034 s, elapsed        0.035 s
  | RMS charge density error from multipole expansion :   0.456381E-03

  Integrating Hamiltonian matrix: batch-based integration.
  Time summed over all CPUs for integration: real work        0.068 s, elapsed        0.072 s

  Updating Kohn-Sham eigenvalues, eigenvectors, occupation numbers, and Fermi level.
  Solving generalized eigenproblem
  Solving real symmetric generalised eigenvalue problem by standard ScaLAPACK.
  Using Cholesky factor for transformation
  Using 1-stage real ELPA solver
  Solving real symmetric generalised eigenvalue problem by standard ScaLAPACK.
  Using Cholesky factor for transformation
  Using 1-stage real ELPA solver
  Determining occupation numbers for Kohn-Sham eigenstates.
  | Chemical potential (Fermi level) in eV                 : -.35794004E+01
  | Error in electron count due to remaining E_F inaccuracy: 0.00000000E+00
  | Maximum occupation number of highest empty state:  0.00E+00

  Current spin moment of the entire structure :
  | N = N_up - N_down :    0.00
  | S                 :    0.00
  | J                 :    1.00

  Highest occupied state (VBM) at     -5.09753588 eV
  | Occupation number:      1.00000000
  | Spin channel:        2

  Lowest unoccupied state (CBM) at     1.20178368 eV
  | Occupation number:      0.00000000
  | Spin channel:        1

  Overall HOMO-LUMO gap:      6.29931956 eV.

  Total energy components:
  | Sum of eigenvalues            :          -0.56689174 Ha         -15.42590903 eV
  | XC energy correction          :          -0.44331185 Ha         -12.06312926 eV
  | XC potential correction       :           0.57102127 Ha          15.53827933 eV
  | Free-atom electrostatic energy:          -0.47205878 Ha         -12.84537309 eV
  | Hartree energy correction     :          -0.01701893 Ha          -0.46310852 eV
  | van der Waals energy corr.    :           0.00000000 Ha           0.00000000 eV
  | Entropy correction            :           0.00000000 Ha           0.00000000 eV
  | ---------------------------
  | Total energy                  :          -0.92826003 Ha         -25.25924057 eV
  | Total energy, T -> 0          :          -0.92826003 Ha         -25.25924057 eV  <-- do not rely on this value for anything but (periodic) metals
  | Electronic free energy        :          -0.92826003 Ha         -25.25924057 eV

  Derived energy quantities:
  | Kinetic energy                :           0.89384293 Ha          24.32270375 eV
  | Electrostatic energy          :          -1.37879111 Ha         -37.51881506 eV
  | Energy correction for multipole
  | error in Hartree potential    :          -0.00011880 Ha          -0.00323276 eV
  | Sum of eigenvalues per atom                           :          -7.71295452 eV
  | Total energy (T->0) per atom                          :         -12.62962028 eV  <-- do not rely on this value for anything but (periodic) metals
  | Electronic free energy per atom                       :         -12.62962028 eV

  Self-consistency convergence accuracy:
  | Change of charge/spin density : 0.1095E+00 0.2635E+00
  | Change of sum of eigenvalues  : 0.2990E+01 eV
  | Change of total energy        : 0.2247E+01 eV

  End self-consistency iteration #     3       :  max(cpu_time)    wall_clock(cpu1)
  | Time for this iteration                    :        0.026 s           0.025 s
  | Charge density update                      :        0.006 s           0.006 s
  | Density mixing                             :        0.001 s           0.001 s
  | Hartree multipole update                   :        0.001 s           0.001 s
  | Hartree multipole summation                :        0.005 s           0.005 s
  | Integration                                :        0.009 s           0.009 s
  | Solution of K.-S. eqns.                    :        0.001 s           0.002 s
  | Total energy evaluation                    :        0.000 s           0.001 s
------------------------------------------------------------

------------------------------------------------------------
          Begin self-consistency iteration #    4

  Date     :  20220120, Time     :  153759.799
------------------------------------------------------------
  Evaluating new KS density.
  Integration grid: deviation in total charge (<rho> - N_e) =   2.054443E-07
  | <rho_up-rho_dn> = N_up-N_dn =     -1.9503; <|rho_up-rho_dn|> =      1.9503
  Pulay mixing of updated and previous charge densities.

  Evaluating partitioned Hartree potential by multipole expansion.
  | Analytical far-field extrapolation by fixed multipoles:
  | Hartree multipole sum: apparent total charge =  -0.239415E-05
  Summing up the Hartree potential.
  Time summed over all CPUs for potential: real work        0.033 s, elapsed        0.034 s
  | RMS charge density error from multipole expansion :   0.424908E-03

  Integrating Hamiltonian matrix: batch-based integration.
  Time summed over all CPUs for integration: real work        0.069 s, elapsed        0.072 s

  Updating Kohn-Sham eigenvalues, eigenvectors, occupation numbers, and Fermi level.
  Solving generalized eigenproblem
  Solving real symmetric generalised eigenvalue problem by standard ScaLAPACK.
  Using Cholesky factor for transformation
  Using 1-stage real ELPA solver
  Solving real symmetric generalised eigenvalue problem by standard ScaLAPACK.
  Using Cholesky factor for transformation
  Using 1-stage real ELPA solver
  Determining occupation numbers for Kohn-Sham eigenstates.
  | Chemical potential (Fermi level) in eV                 : -.28060827E+01
  | Error in electron count due to remaining E_F inaccuracy: 0.00000000E+00
  | Maximum occupation number of highest empty state:  0.00E+00

  Current spin moment of the entire structure :
  | N = N_up - N_down :    0.00
  | S                 :    0.00
  | J                 :    1.00

  Highest occupied state (VBM) at     -5.09820075 eV
  | Occupation number:      1.00000000
  | Spin channel:        2

  Lowest unoccupied state (CBM) at     0.93110541 eV
  | Occupation number:      0.00000000
  | Spin channel:        1

  Overall HOMO-LUMO gap:      6.02930616 eV.

  Total energy components:
  | Sum of eigenvalues            :          -0.52769100 Ha         -14.35920266 eV
  | XC energy correction          :          -0.40813169 Ha         -11.10582844 eV
  | XC potential correction       :           0.52397539 Ha          14.25809584 eV
  | Free-atom electrostatic energy:          -0.47205878 Ha         -12.84537309 eV
  | Hartree energy correction     :          -0.01260138 Ha          -0.34290109 eV
  | van der Waals energy corr.    :           0.00000000 Ha           0.00000000 eV
  | Entropy correction            :           0.00000000 Ha           0.00000000 eV
  | ---------------------------
  | Total energy                  :          -0.89650747 Ha         -24.39520945 eV
  | Total energy, T -> 0          :          -0.89650747 Ha         -24.39520945 eV  <-- do not rely on this value for anything but (periodic) metals
  | Electronic free energy        :          -0.89650747 Ha         -24.39520945 eV

  Derived energy quantities:
  | Kinetic energy                :           0.87700997 Ha          23.86465550 eV
  | Electrostatic energy          :          -1.36538575 Ha         -37.15403650 eV
  | Energy correction for multipole
  | error in Hartree potential    :          -0.00011185 Ha          -0.00304356 eV
  | Sum of eigenvalues per atom                           :          -7.17960133 eV
  | Total energy (T->0) per atom                          :         -12.19760472 eV  <-- do not rely on this value for anything but (periodic) metals
  | Electronic free energy per atom                       :         -12.19760472 eV

  Self-consistency convergence accuracy:
  | Change of charge/spin density : 0.1067E+00 0.2664E+00
  | Change of sum of eigenvalues  : 0.1067E+01 eV
  | Change of total energy        : 0.8640E+00 eV

  End self-consistency iteration #     4       :  max(cpu_time)    wall_clock(cpu1)
  | Time for this iteration                    :        0.025 s           0.025 s
  | Charge density update                      :        0.006 s           0.006 s
  | Density mixing                             :        0.001 s           0.001 s
  | Hartree multipole update                   :        0.001 s           0.001 s
  | Hartree multipole summation                :        0.005 s           0.005 s
  | Integration                                :        0.009 s           0.009 s
  | Solution of K.-S. eqns.                    :        0.001 s           0.002 s
  | Total energy evaluation                    :        0.000 s           0.001 s
------------------------------------------------------------

------------------------------------------------------------
          Begin self-consistency iteration #    5

  Date     :  20220120, Time     :  153759.827
------------------------------------------------------------
  Evaluating new KS density.
  Integration grid: deviation in total charge (<rho> - N_e) =   2.026604E-07
  | <rho_up-rho_dn> = N_up-N_dn =     -1.9130; <|rho_up-rho_dn|> =      1.9130
  Pulay mixing of updated and previous charge densities.

  Evaluating partitioned Hartree potential by multipole expansion.
  | Analytical far-field extrapolation by fixed multipoles:
  | Hartree multipole sum: apparent total charge =  -0.238238E-05
  Summing up the Hartree potential.
  Time summed over all CPUs for potential: real work        0.033 s, elapsed        0.034 s
  | RMS charge density error from multipole expansion :   0.444915E-03

  Integrating Hamiltonian matrix: batch-based integration.
  Time summed over all CPUs for integration: real work        0.067 s, elapsed        0.071 s

  Updating Kohn-Sham eigenvalues, eigenvectors, occupation numbers, and Fermi level.
  Solving generalized eigenproblem
  Solving real symmetric generalised eigenvalue problem by standard ScaLAPACK.
  Using Cholesky factor for transformation
  Using 1-stage real ELPA solver
  Solving real symmetric generalised eigenvalue problem by standard ScaLAPACK.
  Using Cholesky factor for transformation
  Using 1-stage real ELPA solver
  Determining occupation numbers for Kohn-Sham eigenstates.
  | Chemical potential (Fermi level) in eV                 : -.96953789E+00
  | Error in electron count due to remaining E_F inaccuracy: 0.00000000E+00
  | Maximum occupation number of highest empty state:  0.00E+00

  Current spin moment of the entire structure :
  | N = N_up - N_down :    0.00
  | S                 :    0.00
  | J                 :    1.00

  Highest occupied state (VBM) at     -4.01243542 eV
  | Occupation number:      1.00000000
  | Spin channel:        2

  Lowest unoccupied state (CBM) at     1.84800765 eV
  | Occupation number:      0.00000000
  | Spin channel:        1

  Overall HOMO-LUMO gap:      5.86044307 eV.

  Total energy components:
  | Sum of eigenvalues            :          -0.40817643 Ha         -11.10704574 eV
  | XC energy correction          :          -0.27654606 Ha          -7.52520116 eV
  | XC potential correction       :           0.35363733 Ha           9.62296131 eV
  | Free-atom electrostatic energy:          -0.47205878 Ha         -12.84537309 eV
  | Hartree energy correction     :          -0.02059354 Ha          -0.56037861 eV
  | van der Waals energy corr.    :           0.00000000 Ha           0.00000000 eV
  | Entropy correction            :           0.00000000 Ha           0.00000000 eV
  | ---------------------------
  | Total energy                  :          -0.82373748 Ha         -22.41503729 eV
  | Total energy, T -> 0          :          -0.82373748 Ha         -22.41503729 eV  <-- do not rely on this value for anything but (periodic) metals
  | Electronic free energy        :          -0.82373748 Ha         -22.41503729 eV

  Derived energy quantities:
  | Kinetic energy                :           0.83308013 Ha          22.66926364 eV
  | Electrostatic energy          :          -1.38027155 Ha         -37.55909977 eV
  | Energy correction for multipole
  | error in Hartree potential    :          -0.00012434 Ha          -0.00338336 eV
  | Sum of eigenvalues per atom                           :          -5.55352287 eV
  | Total energy (T->0) per atom                          :         -11.20751865 eV  <-- do not rely on this value for anything but (periodic) metals
  | Electronic free energy per atom                       :         -11.20751865 eV

  Self-consistency convergence accuracy:
  | Change of charge/spin density : 0.8909E-01 0.2733E+00
  | Change of sum of eigenvalues  : 0.3252E+01 eV
  | Change of total energy        : 0.1980E+01 eV

  End self-consistency iteration #     5       :  max(cpu_time)    wall_clock(cpu1)
  | Time for this iteration                    :        0.027 s           0.025 s
  | Charge density update                      :        0.008 s           0.006 s
  | Density mixing                             :        0.001 s           0.001 s
  | Hartree multipole update                   :        0.001 s           0.002 s
  | Hartree multipole summation                :        0.004 s           0.004 s
  | Integration                                :        0.009 s           0.009 s
  | Solution of K.-S. eqns.                    :        0.001 s           0.002 s
  | Total energy evaluation                    :        0.000 s           0.001 s
------------------------------------------------------------

------------------------------------------------------------
          Begin self-consistency iteration #    6

  Date     :  20220120, Time     :  153759.854
------------------------------------------------------------
  Evaluating new KS density.
  Integration grid: deviation in total charge (<rho> - N_e) =   2.066418E-07
  | <rho_up-rho_dn> = N_up-N_dn =     -1.9611; <|rho_up-rho_dn|> =      1.9611
  Pulay mixing of updated and previous charge densities.

  Evaluating partitioned Hartree potential by multipole expansion.
  | Analytical far-field extrapolation by fixed multipoles:
  | Hartree multipole sum: apparent total charge =  -0.256658E-05
  Summing up the Hartree potential.
  Time summed over all CPUs for potential: real work        0.033 s, elapsed        0.034 s
  | RMS charge density error from multipole expansion :   0.495049E-03

  Integrating Hamiltonian matrix: batch-based integration.
  Time summed over all CPUs for integration: real work        0.067 s, elapsed        0.070 s

  Updating Kohn-Sham eigenvalues, eigenvectors, occupation numbers, and Fermi level.
  Solving generalized eigenproblem
  Solving real symmetric generalised eigenvalue problem by standard ScaLAPACK.
  Using Cholesky factor for transformation
  Using 1-stage real ELPA solver
  Solving real symmetric generalised eigenvalue problem by standard ScaLAPACK.
  Using Cholesky factor for transformation
  Using 1-stage real ELPA solver
  Determining occupation numbers for Kohn-Sham eigenstates.
  | Chemical potential (Fermi level) in eV                 : -.26307770E+01
  | Error in electron count due to remaining E_F inaccuracy: 0.00000000E+00
  | Maximum occupation number of highest empty state:  0.00E+00

  Current spin moment of the entire structure :
  | N = N_up - N_down :    0.00
  | S                 :    0.00
  | J                 :    1.00

  Highest occupied state (VBM) at     -5.09957052 eV
  | Occupation number:      1.00000000
  | Spin channel:        2

  Lowest unoccupied state (CBM) at     0.84769404 eV
  | Occupation number:      0.00000000
  | Spin channel:        1

  Overall HOMO-LUMO gap:      5.94726455 eV.

  Total energy components:
  | Sum of eigenvalues            :          -0.51887104 Ha         -14.11919944 eV
  | XC energy correction          :          -0.41983086 Ha         -11.42417906 eV
  | XC potential correction       :           0.53912967 Ha          14.67046480 eV
  | Free-atom electrostatic energy:          -0.47205878 Ha         -12.84537309 eV
  | Hartree energy correction     :          -0.02033487 Ha          -0.55333985 eV
  | van der Waals energy corr.    :           0.00000000 Ha           0.00000000 eV
  | Entropy correction            :           0.00000000 Ha           0.00000000 eV
  | ---------------------------
  | Total energy                  :          -0.89196588 Ha         -24.27162663 eV
  | Total energy, T -> 0          :          -0.89196588 Ha         -24.27162663 eV  <-- do not rely on this value for anything but (periodic) metals
  | Electronic free energy        :          -0.89196588 Ha         -24.27162663 eV

  Derived energy quantities:
  | Kinetic energy                :           0.88651418 Ha          24.12327819 eV
  | Electrostatic energy          :          -1.35864920 Ha         -36.97072576 eV
  | Energy correction for multipole
  | error in Hartree potential    :          -0.00013047 Ha          -0.00355022 eV
  | Sum of eigenvalues per atom                           :          -7.05959972 eV
  | Total energy (T->0) per atom                          :         -12.13581332 eV  <-- do not rely on this value for anything but (periodic) metals
  | Electronic free energy per atom                       :         -12.13581332 eV

  Self-consistency convergence accuracy:
  | Change of charge/spin density : 0.9851E-01 0.2903E+00
  | Change of sum of eigenvalues  : -.3012E+01 eV
  | Change of total energy        : -.1857E+01 eV

  End self-consistency iteration #     6       :  max(cpu_time)    wall_clock(cpu1)
  | Time for this iteration                    :        0.025 s           0.025 s
  | Charge density update                      :        0.006 s           0.005 s
  | Density mixing                             :        0.002 s           0.002 s
  | Hartree multipole update                   :        0.001 s           0.001 s
  | Hartree multipole summation                :        0.005 s           0.005 s
  | Integration                                :        0.009 s           0.009 s
  | Solution of K.-S. eqns.                    :        0.001 s           0.001 s
  | Total energy evaluation                    :        0.000 s           0.000 s
------------------------------------------------------------

------------------------------------------------------------
          Begin self-consistency iteration #    7

  Date     :  20220120, Time     :  153759.880
------------------------------------------------------------
  Evaluating new KS density.
  Integration grid: deviation in total charge (<rho> - N_e) =   2.019302E-07
  | <rho_up-rho_dn> = N_up-N_dn =     -1.9175; <|rho_up-rho_dn|> =      1.9175
  Pulay mixing of updated and previous charge densities.

  Evaluating partitioned Hartree potential by multipole expansion.
  | Analytical far-field extrapolation by fixed multipoles:
  | Hartree multipole sum: apparent total charge =  -0.263053E-05
  Summing up the Hartree potential.
  Time summed over all CPUs for potential: real work        0.033 s, elapsed        0.034 s
  | RMS charge density error from multipole expansion :   0.526930E-03

  Integrating Hamiltonian matrix: batch-based integration.
  Time summed over all CPUs for integration: real work        0.066 s, elapsed        0.070 s

  Updating Kohn-Sham eigenvalues, eigenvectors, occupation numbers, and Fermi level.
  Solving generalized eigenproblem
  Solving real symmetric generalised eigenvalue problem by standard ScaLAPACK.
  Using Cholesky factor for transformation
  Using 1-stage real ELPA solver
  Solving real symmetric generalised eigenvalue problem by standard ScaLAPACK.
  Using Cholesky factor for transformation
  Using 1-stage real ELPA solver
  Determining occupation numbers for Kohn-Sham eigenstates.
  | Chemical potential (Fermi level) in eV                 : -.26626260E+01
  | Error in electron count due to remaining E_F inaccuracy: 0.00000000E+00
  | Maximum occupation number of highest empty state:  0.00E+00

  Current spin moment of the entire structure :
  | N = N_up - N_down :    0.00
  | S                 :    0.00
  | J                 :    1.00

  Highest occupied state (VBM) at     -5.19386864 eV
  | Occupation number:      1.00000000
  | Spin channel:        2

  Lowest unoccupied state (CBM) at     0.65649553 eV
  | Occupation number:      0.00000000
  | Spin channel:        1

  Overall HOMO-LUMO gap:      5.85036416 eV.

  Total energy components:
  | Sum of eigenvalues            :          -0.52224350 Ha         -14.21096859 eV
  | XC energy correction          :          -0.43074183 Ha         -11.72108167 eV
  | XC potential correction       :           0.55319645 Ha          15.05324136 eV
  | Free-atom electrostatic energy:          -0.47205878 Ha         -12.84537309 eV
  | Hartree energy correction     :          -0.02174091 Ha          -0.59160014 eV
  | van der Waals energy corr.    :           0.00000000 Ha           0.00000000 eV
  | Entropy correction            :           0.00000000 Ha           0.00000000 eV
  | ---------------------------
  | Total energy                  :          -0.89358857 Ha         -24.31578212 eV
  | Total energy, T -> 0          :          -0.89358857 Ha         -24.31578212 eV  <-- do not rely on this value for anything but (periodic) metals
  | Electronic free energy        :          -0.89358857 Ha         -24.31578212 eV

  Derived energy quantities:
  | Kinetic energy                :           0.89109890 Ha          24.24803484 eV
  | Electrostatic energy          :          -1.35394564 Ha         -36.84273529 eV
  | Energy correction for multipole
  | error in Hartree potential    :          -0.00013615 Ha          -0.00370474 eV
  | Sum of eigenvalues per atom                           :          -7.10548429 eV
  | Total energy (T->0) per atom                          :         -12.15789106 eV  <-- do not rely on this value for anything but (periodic) metals
  | Electronic free energy per atom                       :         -12.15789106 eV

  Self-consistency convergence accuracy:
  | Change of charge/spin density : 0.8033E-01 0.2751E+00
  | Change of sum of eigenvalues  : -.9177E-01 eV
  | Change of total energy        : -.4416E-01 eV

  End self-consistency iteration #     7       :  max(cpu_time)    wall_clock(cpu1)
  | Time for this iteration                    :        0.026 s           0.025 s
  | Charge density update                      :        0.006 s           0.006 s
  | Density mixing                             :        0.002 s           0.002 s
  | Hartree multipole update                   :        0.001 s           0.001 s
  | Hartree multipole summation                :        0.005 s           0.005 s
  | Integration                                :        0.009 s           0.009 s
  | Solution of K.-S. eqns.                    :        0.001 s           0.001 s
  | Total energy evaluation                    :        0.000 s           0.000 s
------------------------------------------------------------

------------------------------------------------------------
          Begin self-consistency iteration #    8

  Date     :  20220120, Time     :  153759.909
------------------------------------------------------------
  Evaluating new KS density.
  Integration grid: deviation in total charge (<rho> - N_e) =   2.014192E-07
  | <rho_up-rho_dn> = N_up-N_dn =     -1.9149; <|rho_up-rho_dn|> =      1.9149
  Pulay mixing of updated and previous charge densities.

  Evaluating partitioned Hartree potential by multipole expansion.
  | Analytical far-field extrapolation by fixed multipoles:
  | Hartree multipole sum: apparent total charge =  -0.270134E-05
  Summing up the Hartree potential.
  Time summed over all CPUs for potential: real work        0.033 s, elapsed        0.034 s
  | RMS charge density error from multipole expansion :   0.813978E-03

  Integrating Hamiltonian matrix: batch-based integration.
  Time summed over all CPUs for integration: real work        0.064 s, elapsed        0.066 s

  Updating Kohn-Sham eigenvalues, eigenvectors, occupation numbers, and Fermi level.
  Solving generalized eigenproblem
  Solving real symmetric generalised eigenvalue problem by standard ScaLAPACK.
  Using Cholesky factor for transformation
  Using 1-stage real ELPA solver
  Solving real symmetric generalised eigenvalue problem by standard ScaLAPACK.
  Using Cholesky factor for transformation
  Using 1-stage real ELPA solver
  Determining occupation numbers for Kohn-Sham eigenstates.
  | Chemical potential (Fermi level) in eV                 : -.91114617E+00
  | Error in electron count due to remaining E_F inaccuracy: 0.00000000E+00
  | Maximum occupation number of highest empty state:  0.00E+00

  Current spin moment of the entire structure :
  | N = N_up - N_down :    0.00
  | S                 :    0.00
  | J                 :    1.00

  Highest occupied state (VBM) at     -4.30691610 eV
  | Occupation number:      1.00000000
  | Spin channel:        2

  Lowest unoccupied state (CBM) at     2.45057835 eV
  | Occupation number:      0.00000000
  | Spin channel:        1

  Overall HOMO-LUMO gap:      6.75749445 eV.

  Total energy components:
  | Sum of eigenvalues            :          -0.43921732 Ha         -11.95171125 eV
  | XC energy correction          :          -0.38621768 Ha         -10.50951767 eV
  | XC potential correction       :           0.50015397 Ha          13.60988200 eV
  | Free-atom electrostatic energy:          -0.47205878 Ha         -12.84537309 eV
  | Hartree energy correction     :          -0.11963342 Ha          -3.25539111 eV
  | van der Waals energy corr.    :           0.00000000 Ha           0.00000000 eV
  | Entropy correction            :           0.00000000 Ha           0.00000000 eV
  | ---------------------------
  | Total energy                  :          -0.91697323 Ha         -24.95211112 eV
  | Total energy, T -> 0          :          -0.91697323 Ha         -24.95211112 eV  <-- do not rely on this value for anything but (periodic) metals
  | Electronic free energy        :          -0.91697323 Ha         -24.95211112 eV

  Derived energy quantities:
  | Kinetic energy                :           0.92464360 Ha          25.16083265 eV
  | Electrostatic energy          :          -1.45539916 Ha         -39.60342609 eV
  | Energy correction for multipole
  | error in Hartree potential    :          -0.00022745 Ha          -0.00618914 eV
  | Sum of eigenvalues per atom                           :          -5.97585562 eV
  | Total energy (T->0) per atom                          :         -12.47605556 eV  <-- do not rely on this value for anything but (periodic) metals
  | Electronic free energy per atom                       :         -12.47605556 eV

  Self-consistency convergence accuracy:
  | Change of charge/spin density : 0.7654E-01 0.2754E+00
  | Change of sum of eigenvalues  : 0.2259E+01 eV
  | Change of total energy        : -.6363E+00 eV

  End self-consistency iteration #     8       :  max(cpu_time)    wall_clock(cpu1)
  | Time for this iteration                    :        0.025 s           0.025 s
  | Charge density update                      :        0.007 s           0.006 s
  | Density mixing                             :        0.002 s           0.002 s
  | Hartree multipole update                   :        0.001 s           0.002 s
  | Hartree multipole summation                :        0.005 s           0.004 s
  | Integration                                :        0.008 s           0.009 s
  | Solution of K.-S. eqns.                    :        0.001 s           0.001 s
  | Total energy evaluation                    :        0.000 s           0.001 s
------------------------------------------------------------

------------------------------------------------------------
          Begin self-consistency iteration #    9

  Date     :  20220120, Time     :  153759.939
------------------------------------------------------------
  Evaluating new KS density.
  Integration grid: deviation in total charge (<rho> - N_e) =   2.135214E-07
  | <rho_up-rho_dn> = N_up-N_dn =     -2.1479; <|rho_up-rho_dn|> =      2.1479
  Pulay mixing of updated and previous charge densities.

  Evaluating partitioned Hartree potential by multipole expansion.
  | Analytical far-field extrapolation by fixed multipoles:
  | Hartree multipole sum: apparent total charge =  -0.270360E-05
  Summing up the Hartree potential.
  Time summed over all CPUs for potential: real work        0.033 s, elapsed        0.034 s
  | RMS charge density error from multipole expansion :   0.813445E-03

  Integrating Hamiltonian matrix: batch-based integration.
  Time summed over all CPUs for integration: real work        0.064 s, elapsed        0.067 s

  Updating Kohn-Sham eigenvalues, eigenvectors, occupation numbers, and Fermi level.
  Solving generalized eigenproblem
  Solving real symmetric generalised eigenvalue problem by standard ScaLAPACK.
  Using Cholesky factor for transformation
  Using 1-stage real ELPA solver
  Solving real symmetric generalised eigenvalue problem by standard ScaLAPACK.
  Using Cholesky factor for transformation
  Using 1-stage real ELPA solver
  Determining occupation numbers for Kohn-Sham eigenstates.
  | Chemical potential (Fermi level) in eV                 : -.97663860E+00
  | Error in electron count due to remaining E_F inaccuracy: 0.00000000E+00
  | Maximum occupation number of highest empty state:  0.00E+00

  Current spin moment of the entire structure :
  | N = N_up - N_down :    0.00
  | S                 :    0.00
  | J                 :    1.00

  Highest occupied state (VBM) at     -4.30268538 eV
  | Occupation number:      1.00000000
  | Spin channel:        2

  Lowest unoccupied state (CBM) at     2.44256088 eV
  | Occupation number:      0.00000000
  | Spin channel:        1

  Overall HOMO-LUMO gap:      6.74524626 eV.

  Total energy components:
  | Sum of eigenvalues            :          -0.44202236 Ha         -12.02804036 eV
  | XC energy correction          :          -0.38960689 Ha         -10.60174286 eV
  | XC potential correction       :           0.50456466 Ha          13.72990294 eV
  | Free-atom electrostatic energy:          -0.47205878 Ha         -12.84537309 eV
  | Hartree energy correction     :          -0.11854505 Ha          -3.22577503 eV
  | van der Waals energy corr.    :           0.00000000 Ha           0.00000000 eV
  | Entropy correction            :           0.00000000 Ha           0.00000000 eV
  | ---------------------------
  | Total energy                  :          -0.91766843 Ha         -24.97102839 eV
  | Total energy, T -> 0          :          -0.91766843 Ha         -24.97102839 eV  <-- do not rely on this value for anything but (periodic) metals
  | Electronic free energy        :          -0.91766843 Ha         -24.97102839 eV

  Derived energy quantities:
  | Kinetic energy                :           0.92625502 Ha          25.20468152 eV
  | Electrostatic energy          :          -1.45431656 Ha         -39.57396705 eV
  | Energy correction for multipole
  | error in Hartree potential    :          -0.00022705 Ha          -0.00617831 eV
  | Sum of eigenvalues per atom                           :          -6.01402018 eV
  | Total energy (T->0) per atom                          :         -12.48551420 eV  <-- do not rely on this value for anything but (periodic) metals
  | Electronic free energy per atom                       :         -12.48551420 eV

  Self-consistency convergence accuracy:
  | Change of charge/spin density : 0.1277E+00 0.3014E+00
  | Change of sum of eigenvalues  : -.7633E-01 eV
  | Change of total energy        : -.1892E-01 eV

  End self-consistency iteration #     9       :  max(cpu_time)    wall_clock(cpu1)
  | Time for this iteration                    :        0.025 s           0.025 s
  | Charge density update                      :        0.007 s           0.006 s
  | Density mixing                             :        0.002 s           0.002 s
  | Hartree multipole update                   :        0.001 s           0.001 s
  | Hartree multipole summation                :        0.004 s           0.005 s
  | Integration                                :        0.008 s           0.009 s
  | Solution of K.-S. eqns.                    :        0.001 s           0.001 s
  | Total energy evaluation                    :        0.000 s           0.001 s
------------------------------------------------------------

------------------------------------------------------------
          Begin self-consistency iteration #   10

  Date     :  20220120, Time     :  153759.970
------------------------------------------------------------
  Evaluating new KS density.
  Integration grid: deviation in total charge (<rho> - N_e) =   2.134904E-07
  | <rho_up-rho_dn> = N_up-N_dn =     -2.1469; <|rho_up-rho_dn|> =      2.1469
  Pulay mixing of updated and previous charge densities.

  Evaluating partitioned Hartree potential by multipole expansion.
  | Analytical far-field extrapolation by fixed multipoles:
  | Hartree multipole sum: apparent total charge =  -0.101851E-04
  Summing up the Hartree potential.
  Time summed over all CPUs for potential: real work        0.033 s, elapsed        0.034 s
  | RMS charge density error from multipole expansion :   0.581984E-02

  Integrating Hamiltonian matrix: batch-based integration.
  Time summed over all CPUs for integration: real work        0.068 s, elapsed        0.071 s

  Updating Kohn-Sham eigenvalues, eigenvectors, occupation numbers, and Fermi level.
  Solving generalized eigenproblem
  Solving real symmetric generalised eigenvalue problem by standard ScaLAPACK.
  Using Cholesky factor for transformation
  Using 1-stage real ELPA solver
  Solving real symmetric generalised eigenvalue problem by standard ScaLAPACK.
  Using Cholesky factor for transformation
  Using 1-stage real ELPA solver
  Determining occupation numbers for Kohn-Sham eigenstates.
  | Chemical potential (Fermi level) in eV                 : -.17704001E+02
  | Error in electron count due to remaining E_F inaccuracy: 0.00000000E+00
  | Maximum occupation number of highest empty state:  0.00E+00

  Current spin moment of the entire structure :
  | N = N_up - N_down :    0.00
  | S                 :    0.00
  | J                 :    1.00

  Highest occupied state (VBM) at    -19.97091116 eV
  | Occupation number:      1.00000000
  | Spin channel:        2

  Lowest unoccupied state (CBM) at    -5.02654429 eV
  | Occupation number:      0.00000000
  | Spin channel:        1

  Overall HOMO-LUMO gap:     14.94436686 eV.

  Total energy components:
  | Sum of eigenvalues            :          -1.47945869 Ha         -40.25811918 eV
  | XC energy correction          :          -1.09090316 Ha         -29.68498521 eV
  | XC potential correction       :           1.40313380 Ha          38.18121343 eV
  | Free-atom electrostatic energy:          -0.47205878 Ha         -12.84537309 eV
  | Hartree energy correction     :          -0.36725186 Ha          -9.99343148 eV
  | van der Waals energy corr.    :           0.00000000 Ha           0.00000000 eV
  | Entropy correction            :           0.00000000 Ha           0.00000000 eV
  | ---------------------------
  | Total energy                  :          -2.00653868 Ha         -54.60069553 eV
  | Total energy, T -> 0          :          -2.00653868 Ha         -54.60069553 eV  <-- do not rely on this value for anything but (periodic) metals
  | Electronic free energy        :          -2.00653868 Ha         -54.60069553 eV

  Derived energy quantities:
  | Kinetic energy                :          -1.84950883 Ha         -50.32769594 eV
  | Electrostatic energy          :           0.93387331 Ha          25.41198562 eV
  | Energy correction for multipole
  | error in Hartree potential    :          -0.00020812 Ha          -0.00566325 eV
  | Sum of eigenvalues per atom                           :         -20.12905959 eV
  | Total energy (T->0) per atom                          :         -27.30034776 eV  <-- do not rely on this value for anything but (periodic) metals
  | Electronic free energy per atom                       :         -27.30034776 eV

  Self-consistency convergence accuracy:
  | Change of charge/spin density : 0.1281E+00 0.3005E+00
  | Change of sum of eigenvalues  : -.2823E+02 eV
  | Change of total energy        : -.2963E+02 eV

  End self-consistency iteration #    10       :  max(cpu_time)    wall_clock(cpu1)
  | Time for this iteration                    :        0.026 s           0.025 s
  | Charge density update                      :        0.007 s           0.006 s
  | Density mixing                             :        0.002 s           0.001 s
  | Hartree multipole update                   :        0.001 s           0.002 s
  | Hartree multipole summation                :        0.004 s           0.004 s
  | Integration                                :        0.009 s           0.009 s
  | Solution of K.-S. eqns.                    :        0.001 s           0.002 s
  | Total energy evaluation                    :        0.000 s           0.001 s
------------------------------------------------------------

------------------------------------------------------------
          Begin self-consistency iteration #   11

  Date     :  20220120, Time     :  153800.000
------------------------------------------------------------
  Evaluating new KS density.
  Integration grid: deviation in total charge (<rho> - N_e) =   8.808543E-08
  | <rho_up-rho_dn> = N_up-N_dn =     -0.4757; <|rho_up-rho_dn|> =      0.6074
  Pulay mixing of updated and previous charge densities.

  Evaluating partitioned Hartree potential by multipole expansion.
  | Analytical far-field extrapolation by fixed multipoles:
  | Hartree multipole sum: apparent total charge =  -0.153247E-04
  Summing up the Hartree potential.
  Time summed over all CPUs for potential: real work        0.034 s, elapsed        0.034 s
  | RMS charge density error from multipole expansion :   0.645145E-02

  Integrating Hamiltonian matrix: batch-based integration.
  Time summed over all CPUs for integration: real work        0.066 s, elapsed        0.069 s

  Updating Kohn-Sham eigenvalues, eigenvectors, occupation numbers, and Fermi level.
  Solving generalized eigenproblem
  Solving real symmetric generalised eigenvalue problem by standard ScaLAPACK.
  Using Cholesky factor for transformation
  Using 1-stage real ELPA solver
  Solving real symmetric generalised eigenvalue problem by standard ScaLAPACK.
  Using Cholesky factor for transformation
  Using 1-stage real ELPA solver
  Determining occupation numbers for Kohn-Sham eigenstates.
  | Chemical potential (Fermi level) in eV                 : -.21897087E+02
  | Error in electron count due to remaining E_F inaccuracy: 0.00000000E+00
  | Maximum occupation number of highest empty state:  0.00E+00

  Current spin moment of the entire structure :
  | N = N_up - N_down :    0.00
  | S                 :    0.00
  | J                 :    1.00

  Highest occupied state (VBM) at    -24.67317601 eV
  | Occupation number:      1.00000000
  | Spin channel:        2

  Lowest unoccupied state (CBM) at    -6.44932666 eV
  | Occupation number:      0.00000000
  | Spin channel:        1

  Overall HOMO-LUMO gap:     18.22384935 eV.

  Total energy components:
  | Sum of eigenvalues            :          -1.81772064 Ha         -49.46269532 eV
  | XC energy correction          :          -1.40018584 Ha         -38.10099535 eV
  | XC potential correction       :           1.80300648 Ha          49.06230248 eV
  | Free-atom electrostatic energy:          -0.47205878 Ha         -12.84537309 eV
  | Hartree energy correction     :          -0.88856089 Ha         -24.17897200 eV
  | van der Waals energy corr.    :           0.00000000 Ha           0.00000000 eV
  | Entropy correction            :           0.00000000 Ha           0.00000000 eV
  | ---------------------------
  | Total energy                  :          -2.77551968 Ha         -75.52573327 eV
  | Total energy, T -> 0          :          -2.77551968 Ha         -75.52573327 eV  <-- do not rely on this value for anything but (periodic) metals
  | Electronic free energy        :          -2.77551968 Ha         -75.52573327 eV

  Derived energy quantities:
  | Kinetic energy                :          -3.72119780 Ha        -101.25894422 eV
  | Electrostatic energy          :           2.34586396 Ha          63.83420630 eV
  | Energy correction for multipole
  | error in Hartree potential    :          -0.00017297 Ha          -0.00470683 eV
  | Sum of eigenvalues per atom                           :         -24.73134766 eV
  | Total energy (T->0) per atom                          :         -37.76286663 eV  <-- do not rely on this value for anything but (periodic) metals
  | Electronic free energy per atom                       :         -37.76286663 eV

[...]
  | Change of sum of eigenvalues  : 0.7745E-03 eV
  | Change of total energy        : 0.1285E-07 eV

  End self-consistency iteration #    26       :  max(cpu_time)    wall_clock(cpu1)
  | Time for this iteration                    :        0.027 s           0.026 s
  | Charge density update                      :        0.007 s           0.006 s
  | Density mixing                             :        0.002 s           0.002 s
  | Hartree multipole update                   :        0.001 s           0.001 s
  | Hartree multipole summation                :        0.005 s           0.005 s
  | Integration                                :        0.010 s           0.010 s
  | Solution of K.-S. eqns.                    :        0.001 s           0.001 s
  | Total energy evaluation                    :        0.000 s           0.000 s
------------------------------------------------------------

------------------------------------------------------------
          Begin self-consistency iteration #   27

  Date     :  20220120, Time     :  153800.479
------------------------------------------------------------
  Evaluating new KS density.
  Integration grid: deviation in total charge (<rho> - N_e) =  -5.139444E-12
  | <rho_up-rho_dn> = N_up-N_dn =      0.0000; <|rho_up-rho_dn|> =      0.0000
  Pulay mixing of updated and previous charge densities.

  Evaluating partitioned Hartree potential by multipole expansion.
  | Analytical far-field extrapolation by fixed multipoles:
  | Hartree multipole sum: apparent total charge =  -0.212419E-06
  Summing up the Hartree potential.
  Time summed over all CPUs for potential: real work        0.033 s, elapsed        0.034 s
  | RMS charge density error from multipole expansion :   0.766919E-03

  Integrating Hamiltonian matrix: batch-based integration.
  Time summed over all CPUs for integration: real work        0.075 s, elapsed        0.078 s

  Updating Kohn-Sham eigenvalues, eigenvectors, occupation numbers, and Fermi level.
  Solving generalized eigenproblem
  Solving real symmetric generalised eigenvalue problem by standard ScaLAPACK.
  Using Cholesky factor for transformation
  Using 1-stage real ELPA solver
  Solving real symmetric generalised eigenvalue problem by standard ScaLAPACK.
  Using Cholesky factor for transformation
  Using 1-stage real ELPA solver
  Determining occupation numbers for Kohn-Sham eigenstates.
  | Chemical potential (Fermi level) in eV                 : -.78465978E+01
  | Error in electron count due to remaining E_F inaccuracy: 0.00000000E+00
  | Maximum occupation number of highest empty state:  0.00E+00

  Current spin moment of the entire structure :
  | N = N_up - N_down :    0.00
  | S                 :    0.00
  | J                 :    1.00

  Highest occupied state (VBM) at     -9.33417212 eV
  | Occupation number:      1.00000000
  | Spin channel:        1

  Lowest unoccupied state (CBM) at    -0.69470114 eV
  | Occupation number:      0.00000000
  | Spin channel:        1

  Overall HOMO-LUMO gap:      8.63947098 eV.

  Total energy components:
  | Sum of eigenvalues            :          -0.68604907 Ha         -18.66834505 eV
  | XC energy correction          :          -0.62171322 Ha         -16.91767741 eV
  | XC potential correction       :           0.79802256 Ha          21.71529880 eV
  | Free-atom electrostatic energy:          -0.47205878 Ha         -12.84537309 eV
  | Hartree energy correction     :          -0.16030539 Ha          -4.36213157 eV
  | van der Waals energy corr.    :           0.00000000 Ha           0.00000000 eV
  | Entropy correction            :           0.00000000 Ha           0.00000000 eV
  | ---------------------------
  | Total energy                  :          -1.14210390 Ha         -31.07822831 eV
  | Total energy, T -> 0          :          -1.14210390 Ha         -31.07822831 eV  <-- do not rely on this value for anything but (periodic) metals
  | Electronic free energy        :          -1.14210390 Ha         -31.07822831 eV

  Derived energy quantities:
  | Kinetic energy                :           0.95428033 Ha          25.96728889 eV
  | Electrostatic energy          :          -1.47467101 Ha         -40.12783980 eV
  | Energy correction for multipole
  | error in Hartree potential    :          -0.00008311 Ha          -0.00226149 eV
  | Sum of eigenvalues per atom                           :          -9.33417252 eV
  | Total energy (T->0) per atom                          :         -15.53911416 eV  <-- do not rely on this value for anything but (periodic) metals
  | Electronic free energy per atom                       :         -15.53911416 eV

  Self-consistency convergence accuracy:
  | Change of charge/spin density : 0.5303E-06 0.9361E-06
  | Change of sum of eigenvalues  : 0.1671E-04 eV
  | Change of total energy        : -.6343E-09 eV

  End self-consistency iteration #    27       :  max(cpu_time)    wall_clock(cpu1)
  | Time for this iteration                    :        0.027 s           0.027 s
  | Charge density update                      :        0.006 s           0.006 s
  | Density mixing                             :        0.002 s           0.002 s
  | Hartree multipole update                   :        0.001 s           0.002 s
  | Hartree multipole summation                :        0.005 s           0.004 s
  | Integration                                :        0.010 s           0.010 s
  | Solution of K.-S. eqns.                    :        0.001 s           0.002 s
  | Total energy evaluation                    :        0.000 s           0.001 s
------------------------------------------------------------

------------------------------------------------------------
          Begin self-consistency iteration #   28

  Date     :  20220120, Time     :  153800.509
------------------------------------------------------------
  Evaluating new KS density.
  Integration grid: deviation in total charge (<rho> - N_e) =  -1.829203E-12
  | <rho_up-rho_dn> = N_up-N_dn =      0.0000; <|rho_up-rho_dn|> =      0.0000
  Pulay mixing of updated and previous charge densities.

  Evaluating partitioned Hartree potential by multipole expansion.
  | Analytical far-field extrapolation by fixed multipoles:
  | Hartree multipole sum: apparent total charge =  -0.212424E-06
  Summing up the Hartree potential.
  Time summed over all CPUs for potential: real work        0.033 s, elapsed        0.034 s
  | RMS charge density error from multipole expansion :   0.766920E-03

  Integrating Hamiltonian matrix: batch-based integration.
  Time summed over all CPUs for integration: real work        0.075 s, elapsed        0.078 s

  Updating Kohn-Sham eigenvalues, eigenvectors, occupation numbers, and Fermi level.
  Solving generalized eigenproblem
  Solving real symmetric generalised eigenvalue problem by standard ScaLAPACK.
  Using Cholesky factor for transformation
  Using 1-stage real ELPA solver
  Solving real symmetric generalised eigenvalue problem by standard ScaLAPACK.
  Using Cholesky factor for transformation
  Using 1-stage real ELPA solver
  Determining occupation numbers for Kohn-Sham eigenstates.
  | Chemical potential (Fermi level) in eV                 : -.78467774E+01
  | Error in electron count due to remaining E_F inaccuracy: 0.00000000E+00
  | Maximum occupation number of highest empty state:  0.00E+00

  Current spin moment of the entire structure :
  | N = N_up - N_down :    0.00
  | S                 :    0.00
  | J                 :    1.00

  Highest occupied state (VBM) at     -9.33417393 eV
  | Occupation number:      1.00000000
  | Spin channel:        2

  Lowest unoccupied state (CBM) at    -0.69470250 eV
  | Occupation number:      0.00000000
  | Spin channel:        1

  Overall HOMO-LUMO gap:      8.63947143 eV.

  Total energy components:
  | Sum of eigenvalues            :          -0.68604919 Ha         -18.66834842 eV
  | XC energy correction          :          -0.62171316 Ha         -16.91767573 eV
  | XC potential correction       :           0.79802248 Ha          21.71529650 eV
  | Free-atom electrostatic energy:          -0.47205878 Ha         -12.84537309 eV
  | Hartree energy correction     :          -0.16030524 Ha          -4.36212758 eV
  | van der Waals energy corr.    :           0.00000000 Ha           0.00000000 eV
  | Entropy correction            :           0.00000000 Ha           0.00000000 eV
  | ---------------------------
  | Total energy                  :          -1.14210390 Ha         -31.07822831 eV
  | Total energy, T -> 0          :          -1.14210390 Ha         -31.07822831 eV  <-- do not rely on this value for anything but (periodic) metals
  | Electronic free energy        :          -1.14210390 Ha         -31.07822831 eV

  Derived energy quantities:
  | Kinetic energy                :           0.95428026 Ha          25.96728695 eV
  | Electrostatic energy          :          -1.47467100 Ha         -40.12783953 eV
  | Energy correction for multipole
  | error in Hartree potential    :          -0.00008311 Ha          -0.00226149 eV
  | Sum of eigenvalues per atom                           :          -9.33417421 eV
  | Total energy (T->0) per atom                          :         -15.53911416 eV  <-- do not rely on this value for anything but (periodic) metals
  | Electronic free energy per atom                       :         -15.53911416 eV

  Self-consistency convergence accuracy:
  | Change of charge/spin density : 0.9099E-07 0.3134E-06
  | Change of sum of eigenvalues  : -.3368E-05 eV
  | Change of total energy        : -.3517E-10 eV

  Writing Kohn-Sham eigenvalues.

  Spin-up eigenvalues:

  State    Occupation    Eigenvalue [Ha]    Eigenvalue [eV]
      1       1.00000          -0.343025           -9.33417
      2       0.00000          -0.025530           -0.69470
      3       0.00000           0.047343            1.28826
      4       0.00000           0.125180            3.40631
      5       0.00000           0.303651            8.26277
      6       0.00000           0.303651            8.26277
      7       0.00000           0.385784           10.49770
      8       0.00000           0.484556           13.18545
      9       0.00000           0.656337           17.85985
     10       0.00000           0.695278           18.91948
     11       0.00000           0.695278           18.91948

  Spin-down eigenvalues:

  State    Occupation    Eigenvalue [Ha]    Eigenvalue [eV]
      1       1.00000          -0.343025           -9.33417
      2       0.00000          -0.025530           -0.69470
      3       0.00000           0.047343            1.28826
      4       0.00000           0.125180            3.40632
      5       0.00000           0.303651            8.26277
      6       0.00000           0.303651            8.26277
      7       0.00000           0.385784           10.49771
      8       0.00000           0.484557           13.18545
      9       0.00000           0.656338           17.85985
     10       0.00000           0.695278           18.91948
     11       0.00000           0.695278           18.91948

  Current spin moment of the entire structure :
  | N = N_up - N_down :    0.00
  | S                 :    0.00
  | J                 :    1.00

  Highest occupied state (VBM) at     -9.33417393 eV
  | Occupation number:      1.00000000
  | Spin channel:        2

  Lowest unoccupied state (CBM) at    -0.69470250 eV
  | Occupation number:      0.00000000
  | Spin channel:        1

  Overall HOMO-LUMO gap:      8.63947143 eV.

  Self-consistency cycle converged.

  End self-consistency iteration #    28       :  max(cpu_time)    wall_clock(cpu1)
  | Time for this iteration                    :        0.027 s           0.027 s
  | Charge density update                      :        0.007 s           0.006 s
  | Density mixing                             :        0.002 s           0.002 s
  | Hartree multipole update                   :        0.001 s           0.001 s
  | Hartree multipole summation                :        0.005 s           0.005 s
  | Integration                                :        0.010 s           0.009 s
  | Solution of K.-S. eqns.                    :        0.001 s           0.002 s
  | Total energy evaluation                    :        0.000 s           0.001 s
------------------------------------------------------------
  Obtaining max. number of non-zero basis functions in each batch .
  Evaluating KS electron density on previously omitted grid points.
  Evaluating non-empirical van der Waals correction (Tkatchenko/Scheffler 2009).
  Performing Hirshfeld analysis of fragment charges and moments.
  ----------------------------------------------------------------------
  | Atom     1: H
  |   Hirshfeld charge        :     -0.00000048
  |   Free atom volume        :     10.31539447
  |   Hirshfeld volume        :      6.58526963
  |   Hirshfeld spin moment   :      0.00000010
  |   Hirshfeld dipole vector :      0.00000000       0.00000000      -0.09264649
  |   Hirshfeld dipole moment :      0.09264649
  |   Hirshfeld second moments:      0.08376014       0.00000000       0.00000000
  |                                  0.00000000       0.08376014       0.00000000
  |                                  0.00000000       0.00000000       0.08726607
  ----------------------------------------------------------------------
  | Atom     2: H
  |   Hirshfeld charge        :     -0.00000048
  |   Free atom volume        :     10.31539447
  |   Hirshfeld volume        :      6.58526963
  |   Hirshfeld spin moment   :      0.00000010
  |   Hirshfeld dipole vector :      0.00000000       0.00000000       0.09264649
  |   Hirshfeld dipole moment :      0.09264649
  |   Hirshfeld second moments:      0.08376014      -0.00000000       0.00000000
  |                                 -0.00000000       0.08376014       0.00000000
  |                                  0.00000000       0.00000000       0.08726607
  ----------------------------------------------------------------------


  Total energy components:
  | Sum of eigenvalues            :          -0.68604919 Ha         -18.66834842 eV
  | XC energy correction          :          -0.62171316 Ha         -16.91767573 eV
  | XC potential correction       :           0.79802248 Ha          21.71529650 eV
  | Free-atom electrostatic energy:          -0.47205878 Ha         -12.84537309 eV
  | Hartree energy correction     :          -0.16030524 Ha          -4.36212758 eV
  | van der Waals energy corr.    :          -0.00000022 Ha          -0.00000609 eV
  | Entropy correction            :           0.00000000 Ha           0.00000000 eV
  | ---------------------------
  | Total energy                  :          -1.14210412 Ha         -31.07823440 eV
  | Total energy, T -> 0          :          -1.14210412 Ha         -31.07823440 eV  <-- do not rely on this value for anything but (periodic) metals
  | Electronic free energy        :          -1.14210412 Ha         -31.07823440 eV

  Derived energy quantities:
  | Kinetic energy                :           0.95428026 Ha          25.96728695 eV
  | Electrostatic energy          :          -1.47467100 Ha         -40.12783953 eV
  | Energy correction for multipole
  | error in Hartree potential    :          -0.00008311 Ha          -0.00226149 eV
  | Sum of eigenvalues per atom                           :          -9.33417421 eV
  | Total energy (T->0) per atom                          :         -15.53911720 eV  <-- do not rely on this value for anything but (periodic) metals
  | Electronic free energy per atom                       :         -15.53911720 eV
  Timings for VdW correction (Tkatchenko-Scheffler 2009 or later):
  | CPU time:        0.003 s, Wall clock time:        0.002 s.

  Energy and forces in a compact form:
  | Total energy uncorrected      :         -0.310782344012675E+02 eV
  | Total energy corrected        :         -0.310782344012675E+02 eV  <-- do not rely on this value for anything but (periodic) metals
  | Electronic free energy        :         -0.310782344012675E+02 eV

  ------------------------------------ 
  Start decomposition of the XC Energy 
  ------------------------------------ 
  Hartree-Fock part   :          0.000000000 Ha              0.000000000 eV
  ------------------------------------ 
  X Energy            :         -0.580374144 Ha            -15.792783979 eV
  C Energy GGA        :         -0.041339012 Ha             -1.124891753 eV
  Total XC Energy     :         -0.621713156 Ha            -16.917675732 eV
  LDA X and C from self-consistent density 
  X Energy LDA        :         -0.505691669 Ha            -13.760570431 eV
  C Energy LDA        :         -0.090093192 Ha             -2.451560494 eV
  ------------------------------------ 
  End decomposition of the XC Energy 
  ------------------------------------ 

------------------------------------------------------------------------------
  Final output of selected total energy values:

  The following output summarizes some interesting total energy values
  at the end of a run (AFTER all relaxation, molecular dynamics, etc.).

  | Total energy of the DFT / Hartree-Fock s.c.f. calculation      :            -31.078234401 eV
  | Final zero-broadening corrected energy (caution - metals only) :            -31.078234401 eV
  | For reference only, the value of 1 Hartree used in FHI-aims is :             27.211384500 eV

  Before relying on these values, please be sure to understand exactly which
  total energy value is referred to by a given number. Different objects may
  all carry the same name 'total energy'. Definitions:

  Total energy of the DFT / Hartree-Fock s.c.f. calculation:
  | Note that this energy does not include ANY quantities calculated after the
  | s.c.f. cycle, in particular not ANY RPA, MP2, etc. many-body perturbation terms.

  Final zero-broadening corrected energy:
  | For metallic systems only, a broadening of the occupation numbers at the Fermi
  | level can be extrapolated back to zero broadening by an electron-gas inspired
  | formula. For all systems that are not real metals, this value can be
  | meaningless and should be avoided.

------------------------------------------------------------------------------

------------------------------------------------------------
          Leaving FHI-aims.
          Date     :  20220120, Time     :  153800.546

          Computational steps:
          | Number of self-consistency cycles          :           28

          Detailed time accounting                     :  max(cpu_time)    wall_clock(cpu1)
          | Total time                                 :        0.934 s           1.072 s
          | Preparation time                           :        0.086 s           0.085 s
          | Grid partitioning                          :        0.008 s           0.008 s
          | Preloading free-atom quantities on grid    :        0.004 s           0.004 s
          | Free-atom superposition energy             :        0.003 s           0.003 s
          | Total time for integrations                :        0.280 s           0.279 s
          | Total time for solution of K.-S. equations :        0.047 s           0.054 s
          | Total time for density update              :        0.189 s           0.170 s
          | Total time for mixing                      :        0.048 s           0.049 s
          | Total time for Hartree multipole update    :        0.037 s           0.039 s
          | Total time for Hartree multipole sum       :        0.130 s           0.133 s
          | Total time for total energy evaluation     :        0.005 s           0.019 s
          | Total time for scaled ZORA corrections     :        0.000 s           0.000 s
          | Total time for vdW correction              :        0.003 s           0.002 s

          Have a nice day.
------------------------------------------------------------
