  MPI-parallelism will be employed.
------------------------------------------------------------
          Invoking FHI-aims ...
          Version 052014
          Git rev. (modified): 096c982 Merge branch master of fhiaims:/pub/localo[...]
          Compiled on 2016/12/16 at 15:22:01 on host login02.hpc.iitd.ac.in.

          When using FHI-aims, please cite the following reference:

          Volker Blum, Ralf Gehrke, Felix Hanke, Paula Havu,
          Ville Havu, Xinguo Ren, Karsten Reuter, and Matthias Scheffler,
          'Ab Initio Molecular Simulations with Numeric Atom-Centered Orbitals: FHI-aims',
          Computer Physics Communications 180, 2175-2196 (2009)

          For any questions about FHI-aims, please visit the aimsclub website
          with its forums and wiki. Contributions to both the forums and the
          wiki are warmly encouraged - they are for you, and everyone is welcome there.

------------------------------------------------------------

  Date     :  20220120, Time     :  153004.613
  Time zero on CPU 1             :   0.126740000000000E-01  s.
  Internal wall clock time zero  :           411924604.613  s.

  Using        8 parallel tasks.
  Task        0 on host csky021 reporting.
  Task        1 on host csky021 reporting.
  Task        2 on host csky021 reporting.
  Task        3 on host csky021 reporting.
  Task        4 on host csky021 reporting.
  Task        5 on host csky021 reporting.
  Task        6 on host csky021 reporting.
  Task        7 on host csky021 reporting.

  Performing system and environment tests:
  | Environment variable OMP_NUM_THREADS correctly set to 1.
  | Stacksize not measured: no C compiler
  | Checking for scalapack...
  | Testing pdtran()...
  | All pdtran() tests passed.

  Obtaining array dimensions for all initial allocations:
  
  -----------------------------------------------------------------------
  Parsing control.in (first pass over file, find array dimensions only).
  The contents of control.in will be repeated verbatim below
  unless switched off by setting 'verbatim_writeout .false.' .
  in the first line of control.in .
  -----------------------------------------------------------------------
  
    xc               pbe
    spin             collinear
    default_initial_moment hund
    relativistic     atomic_zora scalar 1e-9
    occupation_type  gaussian 0.001
    charge        0
    vdw_correction_hirshfeld
    KS_method        scalapack_fast
    mixer            pulay
    charge_mix_param  0.4
    spin_mix_param    0.6
    sc_accuracy_rho  1E-4
    sc_accuracy_eev  1E-5
    sc_accuracy_etot 1E-5
    sc_iter_limit    100
    empty_states     10
  ################################################################################
  #
  #  FHI-aims code project
  # Volker Blum, Fritz Haber Institute Berlin, 2009
  #
  #  Suggested "tight" defaults for H atom (to be pasted into control.in file)
  #
  ################################################################################
    species        H
  #     global species definitions
      nucleus             1
      mass                1.00794
  #
      l_hartree           6
  #
      cut_pot             4.0  2.0  1.0
      basis_dep_cutoff    1e-4
  #
      radial_base         24 7.0
      radial_multiplier   2
      angular_grids       specified
        division   0.1930   50
        division   0.3175  110
        division   0.4293  194
        division   0.5066  302
        division   0.5626  434
  #      division   0.5922  590
  #      division   0.6227  974
  #      division   0.6868 1202
  #      outer_grid  770
        outer_grid  434
  ################################################################################
  #
  #  Definition of "minimal" basis
  #
  ################################################################################
  #     valence basis states
      valence      1  s   1.
  #     ion occupancy
      ion_occ      1  s   0.5
  ################################################################################
  #
  #  Suggested additional basis functions. For production calculations,
  #  uncomment them one after another (the most important basis functions are
  #  listed first).
  #
  #  Basis constructed for dimers: 0.5 A, 0.7 A, 1.0 A, 1.5 A, 2.5 A
  #
  ################################################################################
  #  "First tier" - improvements: -1014.90 meV to -62.69 meV
       hydro 2 s 2.1
       hydro 2 p 3.5
  #  "Second tier" - improvements: -12.89 meV to -1.83 meV
       hydro 1 s 0.85
       hydro 2 p 3.7
       hydro 2 s 1.2
       hydro 3 d 7
  #  "Third tier" - improvements: -0.25 meV to -0.12 meV
  #     hydro 4 f 11.2
  #     hydro 3 p 4.8
  #     hydro 4 d 9
  #     hydro 3 s 3.2
  ################################################################################
  #
  # For methods that use the localized form of the "resolution of identity" for
  # the two-electron Coulomb operator (RI_method LVL), particularly Hartree-Fock and
  # hybrid density functional calculations, the highest accuracy can be obtained by
  # uncommenting the line beginning with "for_aux"  below, thus adding an extra g radial
  # function to the construction of the product basis set for the expansion.
  # See Ref. New J. Phys. 17, 093020 (2015) for more information, particularly Figs. 1 and 6.
  #
  ################################################################################
  #
  # for_aux hydro 5 g 6.0
  
  -----------------------------------------------------------------------
  Completed first pass over input file control.in .
  -----------------------------------------------------------------------
  
  
  -----------------------------------------------------------------------
  Parsing geometry.in (first pass over file, find array dimensions only).
  The contents of geometry.in will be repeated verbatim below
  unless switched off by setting 'verbatim_writeout .false.' .
  in the first line of geometry.in .
  -----------------------------------------------------------------------
  
  atom 0 0 0 H
  atom 0 0 0.5 H
  
  -----------------------------------------------------------------------
  Completed first pass over input file geometry.in .
  -----------------------------------------------------------------------
  

  Basic array size parameters:
  | Number of species                 :        1
  | Number of atoms                   :        2
  | Max. basis fn. angular momentum   :        2
  | Max. atomic/ionic basis occupied n:        1
  | Max. number of basis fn. types    :        2
  | Max. radial fns per species/type  :        6
  | Max. logarithmic grid size        :     1131
  | Max. radial integration grid size :       49
  | Max. angular integration grid size:      434
  | Max. angular grid division number :        8
  | Radial grid for Hartree potential :     1131
  | Number of spin channels           :        2

------------------------------------------------------------
          Reading file control.in.
------------------------------------------------------------
  XC: Using PBE gradient-corrected functionals.
  Spin treatment: Spin density functional theory - collinear spins.
  Initial spin moment per atom set according to Hund's rules.
  Scalar relativistic treatment of kinetic energy: on-site free-atom approximation to ZORA.
  Occupation type: Gaussian broadening, width =   0.100000E-02 eV.
  Charge =   0.000000E+00: Neutral system requested explicitly.
  Using non-empirical van der Waals correction (Hirshfeld partitioning):
  Kohn-Sham eigenvalues and eigenfunctions calculated by the ELPA eigensolver library.
  Using pulay charge density mixing.
  Charge density mixing - mixing parameter:     0.4000
  Spin density mixing - mixing parameter:     0.6000
  Convergence accuracy of self-consistent charge density: 0.1000E-03
  Convergence accuracy of sum of eigenvalues: 0.1000E-04
  Convergence accuracy of total energy: 0.1000E-04
  Maximum number of s.-c. iterations  :   100
  Number of empty states per atom:       10
 
  Reading configuration options for species H                   .
  | Found nuclear charge :   1.0000
  | Found atomic mass :    1.00794000000000      amu
  | Found l_max for Hartree potential  :   6
  | Found cutoff potl. onset [A], width [A], scale factor :    4.00000    2.00000    1.00000
  | Threshold for basis-dependent cutoff potential is   0.100000E-03
  | Found data for basic radial integration grid :    24 points, outermost radius =    7.000 A
  | Found multiplier for basic radial grid :   2
  | Found angular grid specification: user-specified.
  | Specified grid contains     6 separate shells.
  | Check grid settings after all constraints further below.
  | Found free-atom valence shell :  1 s   1.000
  | No ionic wave fns used. Skipping ion_occ.
  | Found hydrogenic basis function :  2 s   2.100
  | Found hydrogenic basis function :  2 p   3.500
  | Found hydrogenic basis function :  1 s   0.850
  | Found hydrogenic basis function :  2 p   3.700
  | Found hydrogenic basis function :  2 s   1.200
  | Found hydrogenic basis function :  3 d   7.000
  Species H                   : Missing cutoff potential type.
  Defaulting to exp(1/x)/(1-x)^2 type cutoff potential.
  Species H : No 'logarithmic' tag. Using default grid for free atom:
  | Default logarithmic grid data [bohr] : 0.1000E-03 0.1000E+03 0.1012E+01
  Species H : On-site basis accuracy parameter (for Gram-Schmidt orthonormalisation) not specified.
  Using default value basis_acc =  0.1000000E-03.
  Species H                   : Using default innermost maximum threshold i_radial=  2 for radial functions.
  Species H                   : Default cutoff onset for free atom density etc. : 0.40000000E+01 AA.
  Species H                   : Basic radial grid will be enhanced according to radial_multiplier =   2, to contain    49 grid points.
 
  Finished reading input file 'control.in'. Consistency checks are next.
 
  Target number of points in a grid batch is not set. Defaulting to  100
  Method for grid partitioning is not set. Defaulting to parallel hash+maxmin partitioning.
  Batch size limit is not set. Defaulting to    200
  By default, will store active basis functions for each batch.
  If in need of memory, prune_basis_once .false. can be used to disable this option.
  communication_type for Hartree potential was not specified.
  Defaulting to calc_hartree .
  Pulay mixer: Number of relevant iterations not set.
  Defaulting to    8 iterations.
  Pulay mixer: Number of initial linear mixing iterations not set.
  Defaulting to    0 iterations.
  Work space size for distributed Hartree potential not set.
  Defaulting to   0.200000E+03 MB.
  Algorithm-dependent basis array size parameters:
  | n_max_pulay                         :        8
  Calculation of forces was not defined in control.in. No forces will be calculated.
  Geometry relaxation not requested: no relaxation will be performed.
  No accuracy limit for integral partition fn. given. Defaulting to 0.1000E-14.
  No threshold value for u(r) in integrations given. Defaulting to 0.1000E-05.
  No accuracy for occupation numbers given. Defaulting to 0.1000E-07.
  No threshold value for occupation numbers given. Defaulting to 0.0000E+00.
  No accuracy for fermi level given. Defaulting to 0.1000E-19.
  Maximum # of iterations to find E_F not set. Defaulting to  200.
  Will not use alltoall communication since running on < 1024 CPUs.
  Threshold for basis singularities not set.
  Default threshold for basis singularities: 0.1000E-04
  partition_type (choice of integration weights) for integrals was not specified.
  | Using a version of the partition function of Stratmann and coworkers ('stratmann_smoother').
  | At each grid point, the set of atoms used to build the partition table is smoothly restricted to
  | only those atoms whose free-atom density would be non-zero at that grid point.
  Partitioning for Hartree potential was not defined. Using partition_type for integrals.
  | Adjusted default value of keyword multip_moments_threshold to:       0.10000000E-11
  | This value may affect high angular momentum components of the Hartree potential in periodic systems.
  No q(lm)/r^(l+1) cutoff set for long-range Hartree potential.
  | Using default value of  0.100000E-09 .
  | Verify using the multipole_threshold keyword.
  Defaulting to new monopole extrapolation.
  Density update method: automatic selection selected.
------------------------------------------------------------


------------------------------------------------------------
          Reading geometry description geometry.in.
------------------------------------------------------------
  Input structure read successfully.
  The structure contains        2 atoms,  and a total of          2.000 electrons.

  Input geometry:
  | No unit cell requested.
  | Atomic structure:
  |       Atom                x [A]            y [A]            z [A]
  |    1: Species H              0.000000         0.000000         0.000000
  |    2: Species H              0.000000         0.000000         0.500000
  |

  | The smallest distance between any two atoms is         0.50000000 AA.
  |
  | The first atom of this pair is atom number                      1 .
  | The second atom of this pair is atom number                     2 .

  Initial moments and charges:
  |  Atom   Moment         Charge        Species
  |     1  (Hund's rule)   0.000000E+00   H
  |     2  (Hund's rule)   0.000000E+00   H

  Structure-dependent array size parameters: 
  | Number of distinct atom types in initial rho :        1
  | Maximum number of distinct radial functions  :        7
  | Maximum number of basis functions            :       30
  | Number of Kohn-Sham states (occupied + empty):       11
------------------------------------------------------------

------------------------------------------------------------
          Preparing all fixed parts of the calculation.
------------------------------------------------------------
  Determining machine precision:
    2.225073858507201E-308
  Setting up grids for atomic and cluster calculations.

  Creating wave function, potential, and density for free atoms.

  Species: H

  List of occupied orbitals and eigenvalues:
    n    l              occ      energy [Ha]    energy [eV]
    1    0           1.0000        -0.238386        -6.4868

  Spin-polarized or charged system:
  Charge density initialized according to selected moments and charges.

  Creating spin-polarized density from free atoms.

  Species: H
  Charge:   0.000000
  applying Hund's rules ...

  List of occupied orbitals and eigenvalues:
    n    l      energy [Ha]    energy [eV]    occupation
  Spin-up
    1    0        -0.278991        -7.5917     1.00000000
  Spin-down
    1    0         0.090850         2.4721     0.00000000

  Creating fixed part of basis set: Ionic, confined, hydrogenic.
 
  H                    hydrogenic:
 
  List of hydrogenic basis orbitals: 
    n    l      effective z      eigenvalue [eV]  inner max. [A]     outer max. [A]     outer radius [A]   
    2    0         2.100000       -14.9965           0.193243           1.317208           5.373006
    2    1         3.500000       -41.6672           0.602369           0.602369           4.056063
    1    0         0.850000        -9.8292           0.624871           0.624871           5.373006
    2    1         3.700000       -46.5653           0.573622           0.573622           3.910002
    2    0         1.200000        -4.5995           0.334980           2.228188           5.505995
    3    2         7.000000       -74.0753           0.680699           0.680699           3.769201
 

  Adding cutoff potential to free-atom effective potential.
  Creating atomic-like basis functions for current effective potential.

  Species H                   :

  List of atomic basis orbitals and eigenvalues:
    n    l      energy [Ha]    energy [eV]    outer radius [A]
    1    0        -0.238386        -6.4868       5.373006

  Assembling full basis from fixed parts.
  | Species H :   atomic orbital   1 s accepted.
  | Species H :    hydro orbital   2 s accepted.
  | Species H :    hydro orbital   1 s accepted.
  | Species H :    hydro orbital   2 s accepted.
  | Species H :    hydro orbital   2 p accepted.
  | Species H :    hydro orbital   2 p accepted.
  | Species H :    hydro orbital   3 d accepted.
 
  Basis size parameters after reduction:
  | Total number of radial functions:        7
  | Total number of basis functions :       30
 
  Testing on-site integration grid accuracy.
  |  Species  Function  <phi|h_atom|phi> (log., in eV)  <phi|h_atom|phi> (rad., in eV)
           1        1                 -6.4870767962                 -6.4871688290
           1        2                 13.5032046589                 13.5028982997
           1        3                 32.8195184817                 32.8119941656
           1        4                 33.8513856511                 33.7670005767 ***
           1        5                 28.8544614965                 28.8544615203
           1        6                 59.6326952547                 59.6327656460
           1        7                 60.2719308513                 60.2719305949
 * Note: Onsite integrals marked "***" above are less accurate than
 * onsite_accuracy_threshold =    0.03000 eV. Usually, this is harmless.
 * When in doubt, tighten the "radial" and/or "radial_multiplier" flags to check.

  Preparing densities etc. for the partition functions (integrals / Hartree potential).

  Preparations completed.
  max(cpu_time)          :      0.080 s.
  Wall clock time (cpu1) :      0.081 s.
------------------------------------------------------------

------------------------------------------------------------
          Begin self-consistency loop: Initialization.

          Date     :  20220120, Time     :  153004.759
------------------------------------------------------------

  Initializing index lists of integration centers etc. from given atomic structure:
  | Number of centers in hartree potential         :         2
  | Number of centers in hartree multipole         :         2
  | Number of centers in electron density summation:         2
  | Number of centers in basis integrals           :         2
  | Number of centers in integrals                 :         2
  Using modified Scalapack Eigenvalue solver (ELPA)
  * Using 8 tasks for Scalapack Eigenvalue solver.
  Detailed listing of tasks and assigned k-points:
  (for non-periodic systems, the "k-point" denotes an internal label only)
   Task     0 k-point     1 on csky021
   Task     1 k-point     1 on csky021
   Task     2 k-point     1 on csky021
   Task     3 k-point     1 on csky021
   Task     4 k-point     1 on csky021
   Task     5 k-point     1 on csky021
   Task     6 k-point     1 on csky021
   Task     7 k-point     1 on csky021
  Tasks:     8 split into      4 X      2 BLACS grid
  Calculating blocksize based on n_basis =           30 max_nprow =            4 max_npcol =            2
  Scalapack blocksize set to:            4
  Required Scalapack workspace - INTEGER:            1 REAL:             1
  Partitioning the integration grid into batches with parallel hashing+maxmin method.
  | Number of batches:      446
  | Maximal batch size:     197
  | Minimal batch size:      49
  | Average batch size:      64.798
  | Standard deviation of batch sizes:      18.044

  Integration load balanced across     8 MPI tasks.
  Work distribution over tasks is as follows:
  Task     0 has       3643 integration points.
  Task     1 has       3580 integration points.
  Task     2 has       3588 integration points.
  Task     3 has       3681 integration points.
  Task     4 has       3621 integration points.
  Task     5 has       3586 integration points.
  Task     6 has       3613 integration points.
  Task     7 has       3588 integration points.
  Initializing partition tables, free-atom densities, potentials, etc. across the integration grid (initialize_grid_storage).
  | initialize_grid_storage: Actual outermost partition radius vs. multipole_radius_free
  | (-- VB: in principle, multipole_radius_free should be larger, hence this output)
  | Species        1: outer_partition_radius =              6.000000000000000 AA, multipole_radius_free =              6.071692442739658 AA.
  | Original list of interatomic distances with           2 x          2 entries is created.
  | Net number of integration points:    28900
  | of which are non-zero points    :    25996
  Obtaining max. number of non-zero basis functions in each batch (get_n_compute_maxes).
  | Maximal number of non-zero basis functions:       30 in task     0
  | Maximal number of non-zero basis functions:       30 in task     1
  | Maximal number of non-zero basis functions:       30 in task     2
  | Maximal number of non-zero basis functions:       30 in task     3
  | Maximal number of non-zero basis functions:       30 in task     4
  | Maximal number of non-zero basis functions:       30 in task     5
  | Maximal number of non-zero basis functions:       30 in task     6
  | Maximal number of non-zero basis functions:       30 in task     7
  Selecting the method for density update.
  Loop over occupied states selected for charge density update.
  Integrating Hamiltonian matrix: batch-based integration.
  Time summed over all CPUs for integration: real work        0.082 s, elapsed        0.089 s
  Integrating overlap matrix.
  Time summed over all CPUs for integration: real work        0.021 s, elapsed        0.024 s
  Deallocating overlap matrix.

  Updating Kohn-Sham eigenvalues, eigenvectors, occupation numbers, and Fermi level.
  Solving generalized eigenproblem
  Solving real symmetric generalised eigenvalue problem by standard ScaLAPACK.
  Transforming overlap matrix with ScaLAPACK and checking for singularities.
  : Overlap matrix is nonsingular, using Cholesky decomposition
  | Lowest eigenvalue:  0.747945E-04
  Factoring overlap matrix with Cholesky decomposition
  Using Cholesky factor for transformation
  Using 1-stage real ELPA solver
  Solving real symmetric generalised eigenvalue problem by standard ScaLAPACK.
  Using Cholesky factor for transformation
  Using 1-stage real ELPA solver
  Determining occupation numbers for Kohn-Sham eigenstates.
  | Chemical potential (Fermi level) in eV                 : -.18804755E+00
  | Error in electron count due to remaining E_F inaccuracy: 0.00000000E+00
  | Maximum occupation number of highest empty state:  0.00E+00

  Writing Kohn-Sham eigenvalues.

  Spin-up eigenvalues:

  State    Occupation    Eigenvalue [Ha]    Eigenvalue [eV]
      1       1.00000          -0.731578          -19.90726
      2       1.00000          -0.014824           -0.40339
      3       0.00000          -0.001540           -0.04190
      4       0.00000           0.133076            3.62119
      5       0.00000           0.203444            5.53600
      6       0.00000           0.203444            5.53600
      7       0.00000           0.269310            7.32831
      8       0.00000           0.534819           14.55315
      9       0.00000           0.684222           18.61861
     10       0.00000           0.684222           18.61861
     11       0.00000           0.707055           19.23993

  Spin-down eigenvalues:

  State    Occupation    Eigenvalue [Ha]    Eigenvalue [eV]
      1       0.00000           0.099180            2.69882
      2       0.00000           0.112744            3.06792
      3       0.00000           0.503519           13.70145
      4       0.00000           0.528180           14.37251
      5       0.00000           1.146507           31.19804
      6       0.00000           1.184834           32.24097
      7       0.00000           1.184834           32.24097
      8       0.00000           1.451041           39.48485
      9       0.00000           1.451041           39.48485
     10       0.00000           1.555360           42.32349
     11       0.00000           1.587248           43.19122

  Current spin moment of the entire structure :
  | N = N_up - N_down :    2.00
  | S                 :    1.00
  | J                 :    3.00

  Highest occupied state (VBM) at     -0.40338785 eV
  | Occupation number:      1.00000000
  | Spin channel:        1

  Lowest unoccupied state (CBM) at    -0.04190409 eV
  | Occupation number:      0.00000000
  | Spin channel:        1

  Overall HOMO-LUMO gap:      0.36148376 eV.
  Calculating total energy contributions from superposition of free atom densities.

  Total energy components:
  | Sum of eigenvalues            :          -0.74640252 Ha         -20.31064601 eV
  | XC energy correction          :          -0.71257655 Ha         -19.39019445 eV
  | XC potential correction       :           0.92005166 Ha          25.03587945 eV
  | Free-atom electrostatic energy:          -0.04766235 Ha          -1.29695843 eV
  | Hartree energy correction     :           0.00000000 Ha           0.00000000 eV
  | van der Waals energy corr.    :           0.00000000 Ha           0.00000000 eV
  | Entropy correction            :           0.00000000 Ha           0.00000000 eV
  | ---------------------------
  | Total energy                  :          -0.58658976 Ha         -15.96191944 eV
  | Total energy, T -> 0          :          -0.58658976 Ha         -15.96191944 eV  <-- do not rely on this value for anything but (periodic) metals
  | Electronic free energy        :          -0.58658976 Ha         -15.96191944 eV

  Derived energy quantities:
  | Kinetic energy                :           1.28119361 Ha          34.86305203 eV
  | Electrostatic energy          :          -1.15520682 Ha         -31.43477702 eV
  | Energy correction for multipole
  | error in Hartree potential    :           0.00000000 Ha           0.00000000 eV
  | Sum of eigenvalues per atom                           :         -10.15532300 eV
  | Total energy (T->0) per atom                          :          -7.98095972 eV  <-- do not rely on this value for anything but (periodic) metals
  | Electronic free energy per atom                       :          -7.98095972 eV
  Initialize hartree_potential_storage
  Max. number of atoms included in rho_multipole:            2

  End scf initialization - timings             :  max(cpu_time)    wall_clock(cpu1)
  | Time for scf. initialization               :        0.041 s           0.041 s
  | Boundary condition initialization          :        0.000 s           0.001 s
  | Integration                                :        0.015 s           0.014 s
  | Solution of K.-S. eqns.                    :        0.007 s           0.008 s
  | Grid partitioning                          :        0.007 s           0.007 s
  | Preloading free-atom quantities on grid    :        0.004 s           0.004 s
  | Free-atom superposition energy             :        0.002 s           0.002 s
  | Total energy evaluation                    :        0.000 s           0.001 s
------------------------------------------------------------

------------------------------------------------------------
          Begin self-consistency iteration #    1

  Date     :  20220120, Time     :  153004.801
------------------------------------------------------------
  Evaluating new KS density.
  Integration grid: deviation in total charge (<rho> - N_e) =   9.416547E-07
  | <rho_up-rho_dn> = N_up-N_dn =      2.0000; <|rho_up-rho_dn|> =      2.2276
  Pulay mixing of updated and previous charge densities.

  Evaluating partitioned Hartree potential by multipole expansion.
  | Analytical far-field extrapolation by fixed multipoles:
  | Hartree multipole sum: apparent total charge =  -0.499047E-05
  Summing up the Hartree potential.
  Time summed over all CPUs for potential: real work        0.033 s, elapsed        0.034 s
  | RMS charge density error from multipole expansion :   0.831006E-03

  Integrating Hamiltonian matrix: batch-based integration.
  Time summed over all CPUs for integration: real work        0.068 s, elapsed        0.075 s

  Updating Kohn-Sham eigenvalues, eigenvectors, occupation numbers, and Fermi level.
  Solving generalized eigenproblem
  Solving real symmetric generalised eigenvalue problem by standard ScaLAPACK.
  Using Cholesky factor for transformation
  Using 1-stage real ELPA solver
  Solving real symmetric generalised eigenvalue problem by standard ScaLAPACK.
  Using Cholesky factor for transformation
  Using 1-stage real ELPA solver
  Determining occupation numbers for Kohn-Sham eigenstates.
  | Chemical potential (Fermi level) in eV                 : -.74717519E+01
  | Error in electron count due to remaining E_F inaccuracy: 0.00000000E+00
  | Maximum occupation number of highest empty state:  0.00E+00

  Writing Kohn-Sham eigenvalues.

  Spin-up eigenvalues:

  State    Occupation    Eigenvalue [Ha]    Eigenvalue [eV]
      1       1.00000          -0.575707          -15.66579
      2       0.00000           0.061019            1.66040
      3       0.00000           0.063996            1.74141
      4       0.00000           0.182351            4.96203
      5       0.00000           0.214856            5.84654
      6       0.00000           0.214856            5.84654
      7       0.00000           0.333233            9.06773
      8       0.00000           0.597562           16.26050
      9       0.00000           0.732021           19.91929
     10       0.00000           0.732021           19.91929
     11       0.00000           0.802125           21.82694

  Spin-down eigenvalues:

  State    Occupation    Eigenvalue [Ha]    Eigenvalue [eV]
      1       1.00000          -0.373715          -10.16929
      2       0.00000           0.077435            2.10711
      3       0.00000           0.087412            2.37861
      4       0.00000           0.246410            6.70516
      5       0.00000           0.324565            8.83186
      6       0.00000           0.324565            8.83186
      7       0.00000           0.385719           10.49594
      8       0.00000           0.707113           19.24152
      9       0.00000           0.814464           22.16268
     10       0.00000           0.814464           22.16268
     11       0.00000           0.876780           23.85840

  Current spin moment of the entire structure :
  | N = N_up - N_down :    0.00
  | S                 :    0.00
  | J                 :    1.00

  Highest occupied state (VBM) at    -10.16929004 eV
  | Occupation number:      1.00000000
  | Spin channel:        2

  Lowest unoccupied state (CBM) at     1.66039939 eV
  | Occupation number:      0.00000000
  | Spin channel:        1

  Overall HOMO-LUMO gap:     11.82968943 eV.

  Total energy components:
  | Sum of eigenvalues            :          -0.94942176 Ha         -25.83508046 eV
  | XC energy correction          :          -0.45980670 Ha         -12.51197703 eV
  | XC potential correction       :           0.59012818 Ha          16.05820481 eV
  | Free-atom electrostatic energy:          -0.04766235 Ha          -1.29695843 eV
  | Hartree energy correction     :           0.05118494 Ha           1.39281313 eV
  | van der Waals energy corr.    :           0.00000000 Ha           0.00000000 eV
  | Entropy correction            :           0.00000000 Ha           0.00000000 eV
  | ---------------------------
  | Total energy                  :          -0.81557769 Ha         -22.19299799 eV
  | Total energy, T -> 0          :          -0.81557769 Ha         -22.19299799 eV  <-- do not rely on this value for anything but (periodic) metals
  | Electronic free energy        :          -0.81557769 Ha         -22.19299799 eV

  Derived energy quantities:
  | Kinetic energy                :           0.86943905 Ha          23.65864040 eV
  | Electrostatic energy          :          -1.22521004 Ha         -33.33966136 eV
  | Energy correction for multipole
  | error in Hartree potential    :          -0.00010336 Ha          -0.00281253 eV
  | Sum of eigenvalues per atom                           :         -12.91754023 eV
  | Total energy (T->0) per atom                          :         -11.09649899 eV  <-- do not rely on this value for anything but (periodic) metals
  | Electronic free energy per atom                       :         -11.09649899 eV

  Self-consistency convergence accuracy:
  | Change of charge/spin density : 0.8559E-01 0.8559E-01
  | Change of sum of eigenvalues  : -.5524E+01 eV
  | Change of total energy        : -.6231E+01 eV

  End self-consistency iteration #     1       :  max(cpu_time)    wall_clock(cpu1)
  | Time for this iteration                    :        0.027 s           0.027 s
  | Charge density update                      :        0.007 s           0.006 s
  | Density mixing                             :        0.001 s           0.001 s
  | Hartree multipole update                   :        0.001 s           0.001 s
  | Hartree multipole summation                :        0.005 s           0.005 s
  | Integration                                :        0.010 s           0.010 s
  | Solution of K.-S. eqns.                    :        0.002 s           0.002 s
  | Total energy evaluation                    :        0.000 s           0.000 s
------------------------------------------------------------

------------------------------------------------------------
          Begin self-consistency iteration #    2

  Date     :  20220120, Time     :  153004.829
------------------------------------------------------------
  Evaluating new KS density.
  Integration grid: deviation in total charge (<rho> - N_e) =   5.649928E-07
  | <rho_up-rho_dn> = N_up-N_dn =     -2.0000; <|rho_up-rho_dn|> =      2.0000
  Pulay mixing of updated and previous charge densities.

  Evaluating partitioned Hartree potential by multipole expansion.
  | Analytical far-field extrapolation by fixed multipoles:
  | Hartree multipole sum: apparent total charge =  -0.481900E-05
  Summing up the Hartree potential.
  Time summed over all CPUs for potential: real work        0.033 s, elapsed        0.035 s
  | RMS charge density error from multipole expansion :   0.800982E-03

  Integrating Hamiltonian matrix: batch-based integration.
  Time summed over all CPUs for integration: real work        0.069 s, elapsed        0.074 s

  Updating Kohn-Sham eigenvalues, eigenvectors, occupation numbers, and Fermi level.
  Solving generalized eigenproblem
  Solving real symmetric generalised eigenvalue problem by standard ScaLAPACK.
  Using Cholesky factor for transformation
  Using 1-stage real ELPA solver
  Solving real symmetric generalised eigenvalue problem by standard ScaLAPACK.
  Using Cholesky factor for transformation
  Using 1-stage real ELPA solver
  Determining occupation numbers for Kohn-Sham eigenstates.
  | Chemical potential (Fermi level) in eV                 : -.10982731E+02
  | Error in electron count due to remaining E_F inaccuracy: 0.00000000E+00
  | Maximum occupation number of highest empty state:  0.00E+00

  Current spin moment of the entire structure :
  | N = N_up - N_down :    0.00
  | S                 :    0.00
  | J                 :    1.00

  Highest occupied state (VBM) at    -12.63380484 eV
  | Occupation number:      1.00000000
  | Spin channel:        2

  Lowest unoccupied state (CBM) at     1.28953677 eV
  | Occupation number:      0.00000000
  | Spin channel:        1

  Overall HOMO-LUMO gap:     13.92334161 eV.

  Total energy components:
  | Sum of eigenvalues            :          -1.19565003 Ha         -32.53529276 eV
  | XC energy correction          :          -0.60518515 Ha         -16.46792585 eV
  | XC potential correction       :           0.78067181 Ha          21.24316086 eV
  | Free-atom electrostatic energy:          -0.04766235 Ha          -1.29695843 eV
  | Hartree energy correction     :           0.04012281 Ha           1.09179726 eV
  | van der Waals energy corr.    :           0.00000000 Ha           0.00000000 eV
  | Entropy correction            :           0.00000000 Ha           0.00000000 eV
  | ---------------------------
  | Total energy                  :          -1.02770291 Ha         -27.96521893 eV
  | Total energy, T -> 0          :          -1.02770291 Ha         -27.96521893 eV  <-- do not rely on this value for anything but (periodic) metals
  | Electronic free energy        :          -1.02770291 Ha         -27.96521893 eV

  Derived energy quantities:
  | Kinetic energy                :           0.81767762 Ha          22.25014011 eV
  | Electrostatic energy          :          -1.24019537 Ha         -33.74743318 eV
  | Energy correction for multipole
  | error in Hartree potential    :          -0.00009446 Ha          -0.00257048 eV
  | Sum of eigenvalues per atom                           :         -16.26764638 eV
  | Total energy (T->0) per atom                          :         -13.98260946 eV  <-- do not rely on this value for anything but (periodic) metals
  | Electronic free energy per atom                       :         -13.98260946 eV

  Self-consistency convergence accuracy:
  | Change of charge/spin density : 0.1455E+00 0.3183E+00
  | Change of sum of eigenvalues  : -.6700E+01 eV
  | Change of total energy        : -.5772E+01 eV

  End self-consistency iteration #     2       :  max(cpu_time)    wall_clock(cpu1)
  | Time for this iteration                    :        0.026 s           0.026 s
  | Charge density update                      :        0.007 s           0.007 s
  | Density mixing                             :        0.001 s           0.001 s
  | Hartree multipole update                   :        0.001 s           0.001 s
  | Hartree multipole summation                :        0.005 s           0.005 s
  | Integration                                :        0.009 s           0.009 s
  | Solution of K.-S. eqns.                    :        0.002 s           0.002 s
  | Total energy evaluation                    :        0.000 s           0.001 s
------------------------------------------------------------

------------------------------------------------------------
          Begin self-consistency iteration #    3

  Date     :  20220120, Time     :  153004.858
------------------------------------------------------------
  Evaluating new KS density.
  Integration grid: deviation in total charge (<rho> - N_e) =   5.468661E-07
  | <rho_up-rho_dn> = N_up-N_dn =     -1.9038; <|rho_up-rho_dn|> =      1.9038
  Pulay mixing of updated and previous charge densities.

  Evaluating partitioned Hartree potential by multipole expansion.
  | Analytical far-field extrapolation by fixed multipoles:
  | Hartree multipole sum: apparent total charge =  -0.505871E-05
  Summing up the Hartree potential.
  Time summed over all CPUs for potential: real work        0.033 s, elapsed        0.037 s
  | RMS charge density error from multipole expansion :   0.707009E-03

  Integrating Hamiltonian matrix: batch-based integration.
  Time summed over all CPUs for integration: real work        0.068 s, elapsed        0.072 s

  Updating Kohn-Sham eigenvalues, eigenvectors, occupation numbers, and Fermi level.
  Solving generalized eigenproblem
  Solving real symmetric generalised eigenvalue problem by standard ScaLAPACK.
  Using Cholesky factor for transformation
  Using 1-stage real ELPA solver
  Solving real symmetric generalised eigenvalue problem by standard ScaLAPACK.
  Using Cholesky factor for transformation
  Using 1-stage real ELPA solver
  Determining occupation numbers for Kohn-Sham eigenstates.
  | Chemical potential (Fermi level) in eV                 : -.88331291E+01
  | Error in electron count due to remaining E_F inaccuracy: 0.00000000E+00
  | Maximum occupation number of highest empty state:  0.00E+00

  Current spin moment of the entire structure :
  | N = N_up - N_down :    0.00
  | S                 :    0.00
  | J                 :    1.00

  Highest occupied state (VBM) at    -11.33396959 eV
  | Occupation number:      1.00000000
  | Spin channel:        2

  Lowest unoccupied state (CBM) at     1.36040591 eV
  | Occupation number:      0.00000000
  | Spin channel:        1

  Overall HOMO-LUMO gap:     12.69437549 eV.

  Total energy components:
  | Sum of eigenvalues            :          -1.04849251 Ha         -28.53093293 eV
  | XC energy correction          :          -0.51375134 Ha         -13.97988524 eV
  | XC potential correction       :           0.66072326 Ha          17.97919461 eV
  | Free-atom electrostatic energy:          -0.04766235 Ha          -1.29695843 eV
  | Hartree energy correction     :           0.05882192 Ha           1.60062586 eV
  | van der Waals energy corr.    :           0.00000000 Ha           0.00000000 eV
  | Entropy correction            :           0.00000000 Ha           0.00000000 eV
  | ---------------------------
  | Total energy                  :          -0.89036102 Ha         -24.22795613 eV
  | Total energy, T -> 0          :          -0.89036102 Ha         -24.22795613 eV  <-- do not rely on this value for anything but (periodic) metals
  | Electronic free energy        :          -0.89036102 Ha         -24.22795613 eV

  Derived energy quantities:
  | Kinetic energy                :           0.81635415 Ha          22.21412677 eV
  | Electrostatic energy          :          -1.19296384 Ha         -32.46219766 eV
  | Energy correction for multipole
  | error in Hartree potential    :          -0.00008358 Ha          -0.00227431 eV
  | Sum of eigenvalues per atom                           :         -14.26546646 eV
  | Total energy (T->0) per atom                          :         -12.11397806 eV  <-- do not rely on this value for anything but (periodic) metals
  | Electronic free energy per atom                       :         -12.11397806 eV

  Self-consistency convergence accuracy:
  | Change of charge/spin density : 0.2387E+00 0.2828E+00
  | Change of sum of eigenvalues  : 0.4004E+01 eV
  | Change of total energy        : 0.3737E+01 eV

  End self-consistency iteration #     3       :  max(cpu_time)    wall_clock(cpu1)
  | Time for this iteration                    :        0.026 s           0.026 s
  | Charge density update                      :        0.007 s           0.006 s
  | Density mixing                             :        0.001 s           0.002 s
  | Hartree multipole update                   :        0.001 s           0.001 s
  | Hartree multipole summation                :        0.005 s           0.005 s
  | Integration                                :        0.009 s           0.009 s
  | Solution of K.-S. eqns.                    :        0.002 s           0.002 s
  | Total energy evaluation                    :        0.000 s           0.000 s
------------------------------------------------------------

------------------------------------------------------------
          Begin self-consistency iteration #    4

  Date     :  20220120, Time     :  153004.890
------------------------------------------------------------
  Evaluating new KS density.
  Integration grid: deviation in total charge (<rho> - N_e) =   5.529357E-07
  | <rho_up-rho_dn> = N_up-N_dn =     -1.9295; <|rho_up-rho_dn|> =      1.9295
  Pulay mixing of updated and previous charge densities.

  Evaluating partitioned Hartree potential by multipole expansion.
  | Analytical far-field extrapolation by fixed multipoles:
  | Hartree multipole sum: apparent total charge =  -0.721924E-05
  Summing up the Hartree potential.
  Time summed over all CPUs for potential: real work        0.033 s, elapsed        0.035 s
  | RMS charge density error from multipole expansion :   0.186284E-02

  Integrating Hamiltonian matrix: batch-based integration.
  Time summed over all CPUs for integration: real work        0.068 s, elapsed        0.071 s

  Updating Kohn-Sham eigenvalues, eigenvectors, occupation numbers, and Fermi level.
  Solving generalized eigenproblem
  Solving real symmetric generalised eigenvalue problem by standard ScaLAPACK.
  Using Cholesky factor for transformation
  Using 1-stage real ELPA solver
  Solving real symmetric generalised eigenvalue problem by standard ScaLAPACK.
  Using Cholesky factor for transformation
  Using 1-stage real ELPA solver
  Determining occupation numbers for Kohn-Sham eigenstates.
  | Chemical potential (Fermi level) in eV                 : -.98694434E+01
  | Error in electron count due to remaining E_F inaccuracy: 0.00000000E+00
  | Maximum occupation number of highest empty state:  0.00E+00

  Current spin moment of the entire structure :
  | N = N_up - N_down :    0.00
  | S                 :    0.00
  | J                 :    1.00

  Highest occupied state (VBM) at    -15.02870174 eV
  | Occupation number:      1.00000000
  | Spin channel:        2

  Lowest unoccupied state (CBM) at    -0.07686344 eV
  | Occupation number:      0.00000000
  | Spin channel:        1

  Overall HOMO-LUMO gap:     14.95183830 eV.

  Total energy components:
  | Sum of eigenvalues            :          -1.20669621 Ha         -32.83587447 eV
  | XC energy correction          :          -0.50220908 Ha         -13.66580430 eV
  | XC potential correction       :           0.64602587 Ha          17.57925826 eV
  | Free-atom electrostatic energy:          -0.04766235 Ha          -1.29695843 eV
  | Hartree energy correction     :           0.17171298 Ha           4.67254788 eV
  | van der Waals energy corr.    :           0.00000000 Ha           0.00000000 eV
  | Entropy correction            :           0.00000000 Ha           0.00000000 eV
  | ---------------------------
  | Total energy                  :          -0.93882879 Ha         -25.54683107 eV
  | Total energy, T -> 0          :          -0.93882879 Ha         -25.54683107 eV  <-- do not rely on this value for anything but (periodic) metals
  | Electronic free energy        :          -0.93882879 Ha         -25.54683107 eV

  Derived energy quantities:
  | Kinetic energy                :           0.12603923 Ha           3.42970204 eV
  | Electrostatic energy          :          -0.56265894 Ha         -15.31072881 eV
  | Energy correction for multipole
  | error in Hartree potential    :           0.00022257 Ha           0.00605646 eV
  | Sum of eigenvalues per atom                           :         -16.41793723 eV
  | Total energy (T->0) per atom                          :         -12.77341553 eV  <-- do not rely on this value for anything but (periodic) metals
  | Electronic free energy per atom                       :         -12.77341553 eV

  Self-consistency convergence accuracy:
  | Change of charge/spin density : 0.1806E+00 0.2976E+00
  | Change of sum of eigenvalues  : -.4305E+01 eV
  | Change of total energy        : -.1319E+01 eV

  End self-consistency iteration #     4       :  max(cpu_time)    wall_clock(cpu1)
  | Time for this iteration                    :        0.028 s           0.025 s
  | Charge density update                      :        0.008 s           0.006 s
  | Density mixing                             :        0.001 s           0.001 s
  | Hartree multipole update                   :        0.001 s           0.002 s
  | Hartree multipole summation                :        0.005 s           0.004 s
  | Integration                                :        0.009 s           0.009 s
  | Solution of K.-S. eqns.                    :        0.001 s           0.002 s
  | Total energy evaluation                    :        0.000 s           0.001 s
------------------------------------------------------------

------------------------------------------------------------
          Begin self-consistency iteration #    5

  Date     :  20220120, Time     :  153004.918
------------------------------------------------------------
  Evaluating new KS density.
  Integration grid: deviation in total charge (<rho> - N_e) =   4.536015E-07
  | <rho_up-rho_dn> = N_up-N_dn =     -1.4409; <|rho_up-rho_dn|> =      1.4409
  Pulay mixing of updated and previous charge densities.

  Evaluating partitioned Hartree potential by multipole expansion.
  | Analytical far-field extrapolation by fixed multipoles:
  | Hartree multipole sum: apparent total charge =  -0.148630E-04
  Summing up the Hartree potential.
  Time summed over all CPUs for potential: real work        0.033 s, elapsed        0.034 s
  | RMS charge density error from multipole expansion :   0.885475E-02

  Integrating Hamiltonian matrix: batch-based integration.
  Time summed over all CPUs for integration: real work        0.070 s, elapsed        0.073 s

  Updating Kohn-Sham eigenvalues, eigenvectors, occupation numbers, and Fermi level.
  Solving generalized eigenproblem
  Solving real symmetric generalised eigenvalue problem by standard ScaLAPACK.
  Using Cholesky factor for transformation
  Using 1-stage real ELPA solver
  Solving real symmetric generalised eigenvalue problem by standard ScaLAPACK.
  Using Cholesky factor for transformation
  Using 1-stage real ELPA solver
  Determining occupation numbers for Kohn-Sham eigenstates.
  | Chemical potential (Fermi level) in eV                 : -.26508668E+02
  | Error in electron count due to remaining E_F inaccuracy: 0.00000000E+00
  | Maximum occupation number of highest empty state:  0.00E+00

  Current spin moment of the entire structure :
  | N = N_up - N_down :    0.00
  | S                 :    0.00
  | J                 :    1.00

  Highest occupied state (VBM) at    -28.72769774 eV
  | Occupation number:      1.00000000
  | Spin channel:        2

  Lowest unoccupied state (CBM) at    -3.00192007 eV
  | Occupation number:      0.00000000
  | Spin channel:        1

  Overall HOMO-LUMO gap:     25.72577768 eV.

  Total energy components:
  | Sum of eigenvalues            :          -2.15415425 Ha         -58.61751960 eV
  | XC energy correction          :          -0.78961234 Ha         -21.48644488 eV
  | XC potential correction       :           1.01549376 Ha          27.63299114 eV
  | Free-atom electrostatic energy:          -0.04766235 Ha          -1.29695843 eV
  | Hartree energy correction     :           0.03498463 Ha           0.95198018 eV
  | van der Waals energy corr.    :           0.00000000 Ha           0.00000000 eV
  | Entropy correction            :           0.00000000 Ha           0.00000000 eV
  | ---------------------------
  | Total energy                  :          -1.94095055 Ha         -52.81595159 eV
  | Total energy, T -> 0          :          -1.94095055 Ha         -52.81595159 eV  <-- do not rely on this value for anything but (periodic) metals
  | Electronic free energy        :          -1.94095055 Ha         -52.81595159 eV

  Derived energy quantities:
  | Kinetic energy                :          -3.20609003 Ha         -87.24214862 eV
  | Electrostatic energy          :           2.05475182 Ha          55.91264191 eV
  | Energy correction for multipole
  | error in Hartree potential    :           0.00111244 Ha           0.03027111 eV
  | Sum of eigenvalues per atom                           :         -29.30875980 eV
  | Total energy (T->0) per atom                          :         -26.40797580 eV  <-- do not rely on this value for anything but (periodic) metals
  | Electronic free energy per atom                       :         -26.40797580 eV

  Self-consistency convergence accuracy:
  | Change of charge/spin density : 0.3991E+00 0.1996E+00
  | Change of sum of eigenvalues  : -.2578E+02 eV
  | Change of total energy        : -.2727E+02 eV

  End self-consistency iteration #     5       :  max(cpu_time)    wall_clock(cpu1)
  | Time for this iteration                    :        0.026 s           0.026 s
  | Charge density update                      :        0.007 s           0.006 s
  | Density mixing                             :        0.002 s           0.002 s
  | Hartree multipole update                   :        0.001 s           0.001 s
  | Hartree multipole summation                :        0.005 s           0.005 s
  | Integration                                :        0.009 s           0.009 s
  | Solution of K.-S. eqns.                    :        0.001 s           0.002 s
  | Total energy evaluation                    :        0.000 s           0.001 s
------------------------------------------------------------

------------------------------------------------------------
          Begin self-consistency iteration #    6

  Date     :  20220120, Time     :  153004.949
------------------------------------------------------------
  Evaluating new KS density.
  Integration grid: deviation in total charge (<rho> - N_e) =   2.601386E-07
  | <rho_up-rho_dn> = N_up-N_dn =     -0.6300; <|rho_up-rho_dn|> =      1.3010
  Pulay mixing of updated and previous charge densities.

  Evaluating partitioned Hartree potential by multipole expansion.
  | Analytical far-field extrapolation by fixed multipoles:
  | Hartree multipole sum: apparent total charge =  -0.334191E-04
  Summing up the Hartree potential.
  Time summed over all CPUs for potential: real work        0.033 s, elapsed        0.034 s
  | RMS charge density error from multipole expansion :   0.236434E-01

  Integrating Hamiltonian matrix: batch-based integration.
  Time summed over all CPUs for integration: real work        0.070 s, elapsed        0.073 s

  Updating Kohn-Sham eigenvalues, eigenvectors, occupation numbers, and Fermi level.
  Solving generalized eigenproblem
  Solving real symmetric generalised eigenvalue problem by standard ScaLAPACK.
  Using Cholesky factor for transformation
  Using 1-stage real ELPA solver
  Solving real symmetric generalised eigenvalue problem by standard ScaLAPACK.
  Using Cholesky factor for transformation
  Using 1-stage real ELPA solver
  Determining occupation numbers for Kohn-Sham eigenstates.
  | Chemical potential (Fermi level) in eV                 : -.68991712E+02
  | Error in electron count due to remaining E_F inaccuracy: 0.00000000E+00
  | Maximum occupation number of highest empty state:  0.00E+00

  Current spin moment of the entire structure :
  | N = N_up - N_down :    0.00
  | S                 :    0.00
  | J                 :    1.00

  Highest occupied state (VBM) at    -74.66474325 eV
  | Occupation number:      1.00000000
  | Spin channel:        2

  Lowest unoccupied state (CBM) at   -20.21508769 eV
  | Occupation number:      0.00000000
  | Spin channel:        1

  Overall HOMO-LUMO gap:     54.44965556 eV.

  Total energy components:
  | Sum of eigenvalues            :          -5.50729571 Ha        -149.86114114 eV
  | XC energy correction          :          -1.62091871 Ha         -44.10744228 eV
  | XC potential correction       :           2.09205616 Ha          56.92774449 eV
  | Free-atom electrostatic energy:          -0.04766235 Ha          -1.29695843 eV
  | Hartree energy correction     :          -3.35233043 Ha         -91.22155224 eV
  | van der Waals energy corr.    :           0.00000000 Ha           0.00000000 eV
  | Entropy correction            :           0.00000000 Ha           0.00000000 eV
  | ---------------------------
  | Total energy                  :          -8.43615104 Ha        -229.55934960 eV
  | Total energy, T -> 0          :          -8.43615104 Ha        -229.55934960 eV  <-- do not rely on this value for anything but (periodic) metals
  | Electronic free energy        :          -8.43615104 Ha        -229.55934960 eV

  Derived energy quantities:
  | Kinetic energy                :         -17.96959034 Ha        -488.97743212 eV
  | Electrostatic energy          :          11.15435802 Ha         303.52552480 eV
  | Energy correction for multipole
  | error in Hartree potential    :           0.00286396 Ha           0.07793225 eV
  | Sum of eigenvalues per atom                           :         -74.93057057 eV
  | Total energy (T->0) per atom                          :        -114.77967480 eV  <-- do not rely on this value for anything but (periodic) metals
  | Electronic free energy per atom                       :        -114.77967480 eV

  Self-consistency convergence accuracy:
  | Change of charge/spin density : 0.1319E+01 0.3538E+00
  | Change of sum of eigenvalues  : -.9124E+02 eV
  | Change of total energy        : -.1767E+03 eV

  End self-consistency iteration #     6       :  max(cpu_time)    wall_clock(cpu1)
  | Time for this iteration                    :        0.027 s           0.026 s
  | Charge density update                      :        0.007 s           0.006 s
  | Density mixing                             :        0.002 s           0.001 s
  | Hartree multipole update                   :        0.001 s           0.002 s
  | Hartree multipole summation                :        0.005 s           0.004 s
  | Integration                                :        0.009 s           0.010 s
  | Solution of K.-S. eqns.                    :        0.001 s           0.001 s
  | Total energy evaluation                    :        0.000 s           0.000 s
------------------------------------------------------------

------------------------------------------------------------
          Begin self-consistency iteration #    7

  Date     :  20220120, Time     :  153004.978
------------------------------------------------------------
  Evaluating new KS density.
  Integration grid: deviation in total charge (<rho> - N_e) =   1.583910E-07
  | <rho_up-rho_dn> = N_up-N_dn =     -0.2995; <|rho_up-rho_dn|> =      2.7924
  Pulay mixing of updated and previous charge densities.

  Evaluating partitioned Hartree potential by multipole expansion.
  | Analytical far-field extrapolation by fixed multipoles:
  | Hartree multipole sum: apparent total charge =  -0.248891E-04
  Summing up the Hartree potential.
  Time summed over all CPUs for potential: real work        0.033 s, elapsed        0.035 s
  | RMS charge density error from multipole expansion :   0.173002E-01

  Integrating Hamiltonian matrix: batch-based integration.
  Time summed over all CPUs for integration: real work        0.070 s, elapsed        0.073 s

  Updating Kohn-Sham eigenvalues, eigenvectors, occupation numbers, and Fermi level.
  Solving generalized eigenproblem
  Solving real symmetric generalised eigenvalue problem by standard ScaLAPACK.
  Using Cholesky factor for transformation
  Using 1-stage real ELPA solver
  Solving real symmetric generalised eigenvalue problem by standard ScaLAPACK.
  Using Cholesky factor for transformation
  Using 1-stage real ELPA solver
  Determining occupation numbers for Kohn-Sham eigenstates.
  | Chemical potential (Fermi level) in eV                 : -.48299183E+02
  | Error in electron count due to remaining E_F inaccuracy: 0.00000000E+00
  | Maximum occupation number of highest empty state:  0.00E+00

  Current spin moment of the entire structure :
  | N = N_up - N_down :    0.00
  | S                 :    0.00
  | J                 :    1.00

  Highest occupied state (VBM) at    -52.31105845 eV
  | Occupation number:      1.00000000
  | Spin channel:        2

  Lowest unoccupied state (CBM) at   -10.37166013 eV
  | Occupation number:      0.00000000
  | Spin channel:        1

  Overall HOMO-LUMO gap:     41.93939832 eV.

  Total energy components:
  | Sum of eigenvalues            :          -3.87434571 Ha        -105.42631085 eV
  | XC energy correction          :          -1.24211632 Ha         -33.79970468 eV
  | XC potential correction       :           1.60106227 Ha          43.56712100 eV
  | Free-atom electrostatic energy:          -0.04766235 Ha          -1.29695843 eV
  | Hartree energy correction     :          -1.31114132 Ha         -35.67797058 eV
  | van der Waals energy corr.    :           0.00000000 Ha           0.00000000 eV
  | Entropy correction            :           0.00000000 Ha           0.00000000 eV
  | ---------------------------
  | Total energy                  :          -4.87420343 Ha        -132.63382354 eV
  | Total energy, T -> 0          :          -4.87420343 Ha        -132.63382354 eV  <-- do not rely on this value for anything but (periodic) metals
  | Electronic free energy        :          -4.87420343 Ha        -132.63382354 eV

  Derived energy quantities:
  | Kinetic energy                :         -10.19943243 Ha        -277.54067759 eV
  | Electrostatic energy          :           6.56734532 Ha         178.70655873 eV
  | Energy correction for multipole
  | error in Hartree potential    :           0.00215033 Ha           0.05851358 eV
  | Sum of eigenvalues per atom                           :         -52.71315542 eV
  | Total energy (T->0) per atom                          :         -66.31691177 eV  <-- do not rely on this value for anything but (periodic) metals
  | Electronic free energy per atom                       :         -66.31691177 eV

  Self-consistency convergence accuracy:
  | Change of charge/spin density : 0.3223E+01 0.1055E+01
  | Change of sum of eigenvalues  : 0.4443E+02 eV
  | Change of total energy        : 0.9693E+02 eV

  End self-consistency iteration #     7       :  max(cpu_time)    wall_clock(cpu1)
  | Time for this iteration                    :        0.027 s           0.026 s
  | Charge density update                      :        0.007 s           0.006 s
  | Density mixing                             :        0.002 s           0.002 s
  | Hartree multipole update                   :        0.001 s           0.001 s
  | Hartree multipole summation                :        0.005 s           0.005 s
  | Integration                                :        0.009 s           0.009 s
  | Solution of K.-S. eqns.                    :        0.001 s           0.002 s
  | Total energy evaluation                    :        0.000 s           0.001 s
------------------------------------------------------------

------------------------------------------------------------
          Begin self-consistency iteration #    8

  Date     :  20220120, Time     :  153005.008
------------------------------------------------------------
  Evaluating new KS density.
  Integration grid: deviation in total charge (<rho> - N_e) =   1.711567E-07
  | <rho_up-rho_dn> = N_up-N_dn =     -0.3874; <|rho_up-rho_dn|> =      2.1129
  Pulay mixing of updated and previous charge densities.

  Evaluating partitioned Hartree potential by multipole expansion.
  | Analytical far-field extrapolation by fixed multipoles:
  | Hartree multipole sum: apparent total charge =  -0.125927E-04
  Summing up the Hartree potential.
  Time summed over all CPUs for potential: real work        0.033 s, elapsed        0.033 s
  | RMS charge density error from multipole expansion :   0.100429E-01

  Integrating Hamiltonian matrix: batch-based integration.
  Time summed over all CPUs for integration: real work        0.070 s, elapsed        0.074 s

  Updating Kohn-Sham eigenvalues, eigenvectors, occupation numbers, and Fermi level.
  Solving generalized eigenproblem
  Solving real symmetric generalised eigenvalue problem by standard ScaLAPACK.
  Using Cholesky factor for transformation
  Using 1-stage real ELPA solver
  Solving real symmetric generalised eigenvalue problem by standard ScaLAPACK.
  Using Cholesky factor for transformation
  Using 1-stage real ELPA solver
  Determining occupation numbers for Kohn-Sham eigenstates.
  | Chemical potential (Fermi level) in eV                 : -.25322070E+02
  | Error in electron count due to remaining E_F inaccuracy: 0.00000000E+00
  | Maximum occupation number of highest empty state:  0.00E+00

  Current spin moment of the entire structure :
  | N = N_up - N_down :    0.00
  | S                 :    0.00
  | J                 :    1.00

  Highest occupied state (VBM) at    -27.94959735 eV
  | Occupation number:      1.00000000
  | Spin channel:        2

  Lowest unoccupied state (CBM) at    -2.21955653 eV
  | Occupation number:      0.00000000
  | Spin channel:        1

  Overall HOMO-LUMO gap:     25.73004082 eV.

  Total energy components:
  | Sum of eigenvalues            :          -2.08051387 Ha         -56.61366295 eV
  | XC energy correction          :          -0.84764224 Ha         -23.06551888 eV
  | XC potential correction       :           1.09023008 Ha          29.66666984 eV
  | Free-atom electrostatic energy:          -0.04766235 Ha          -1.29695843 eV
  | Hartree energy correction     :          -0.05408656 Ha          -1.47177020 eV
  | van der Waals energy corr.    :           0.00000000 Ha           0.00000000 eV
  | Entropy correction            :           0.00000000 Ha           0.00000000 eV
  | ---------------------------
  | Total energy                  :          -1.93967494 Ha         -52.78124061 eV
  | Total energy, T -> 0          :          -1.93967494 Ha         -52.78124061 eV  <-- do not rely on this value for anything but (periodic) metals
  | Electronic free energy        :          -1.93967494 Ha         -52.78124061 eV

  Derived energy quantities:
  | Kinetic energy                :          -3.12868492 Ha         -85.13584825 eV
  | Electrostatic energy          :           2.03665221 Ha          55.42012651 eV
  | Energy correction for multipole
  | error in Hartree potential    :           0.00147573 Ha           0.04015666 eV
  | Sum of eigenvalues per atom                           :         -28.30683147 eV
  | Total energy (T->0) per atom                          :         -26.39062031 eV  <-- do not rely on this value for anything but (periodic) metals
  | Electronic free energy per atom                       :         -26.39062031 eV

  Self-consistency convergence accuracy:
  | Change of charge/spin density : 0.2428E+01 0.7639E+00
  | Change of sum of eigenvalues  : 0.4881E+02 eV
  | Change of total energy        : 0.7985E+02 eV

  End self-consistency iteration #     8       :  max(cpu_time)    wall_clock(cpu1)
  | Time for this iteration                    :        0.027 s           0.026 s
  | Charge density update                      :        0.007 s           0.006 s
  | Density mixing                             :        0.002 s           0.002 s
  | Hartree multipole update                   :        0.001 s           0.001 s
  | Hartree multipole summation                :        0.004 s           0.005 s
  | Integration                                :        0.009 s           0.009 s
  | Solution of K.-S. eqns.                    :        0.001 s           0.002 s
  | Total energy evaluation                    :        0.000 s           0.001 s
------------------------------------------------------------

------------------------------------------------------------
          Begin self-consistency iteration #    9

  Date     :  20220120, Time     :  153005.038
------------------------------------------------------------
  Evaluating new KS density.
  Integration grid: deviation in total charge (<rho> - N_e) =   6.593246E-08
  | <rho_up-rho_dn> = N_up-N_dn =     -0.0566; <|rho_up-rho_dn|> =      1.2558
  Pulay mixing of updated and previous charge densities.

  Evaluating partitioned Hartree potential by multipole expansion.
  | Analytical far-field extrapolation by fixed multipoles:
  | Hartree multipole sum: apparent total charge =   0.141655E-05
  Summing up the Hartree potential.
  Time summed over all CPUs for potential: real work        0.034 s, elapsed        0.037 s
  | RMS charge density error from multipole expansion :   0.244567E-02

  Integrating Hamiltonian matrix: batch-based integration.
  Time summed over all CPUs for integration: real work        0.070 s, elapsed        0.073 s

  Updating Kohn-Sham eigenvalues, eigenvectors, occupation numbers, and Fermi level.
  Solving generalized eigenproblem
  Solving real symmetric generalised eigenvalue problem by standard ScaLAPACK.
  Using Cholesky factor for transformation
  Using 1-stage real ELPA solver
  Solving real symmetric generalised eigenvalue problem by standard ScaLAPACK.
  Using Cholesky factor for transformation
  Using 1-stage real ELPA solver
  Determining occupation numbers for Kohn-Sham eigenstates.
  | Chemical potential (Fermi level) in eV                 : -.89704650E+01
  | Error in electron count due to remaining E_F inaccuracy: 0.00000000E+00
  | Maximum occupation number of highest empty state:  0.00E+00

  Current spin moment of the entire structure :
  | N = N_up - N_down :    0.00
  | S                 :    0.00
  | J                 :    1.00

  Highest occupied state (VBM) at    -10.76713453 eV
  | Occupation number:      1.00000000
  | Spin channel:        1

  Lowest unoccupied state (CBM) at     1.61325880 eV
  | Occupation number:      0.00000000
  | Spin channel:        2

  Overall HOMO-LUMO gap:     12.38039333 eV.

  Total energy components:
  | Sum of eigenvalues            :          -0.81638492 Ha         -22.21496393 eV
  | XC energy correction          :          -0.81081395 Ha         -22.06337006 eV
  | XC potential correction       :           1.04213494 Ha          28.35793446 eV
  | Free-atom electrostatic energy:          -0.04766235 Ha          -1.29695843 eV
  | Hartree energy correction     :          -0.44369279 Ha         -12.07349521 eV
  | van der Waals energy corr.    :           0.00000000 Ha           0.00000000 eV
  | Entropy correction            :           0.00000000 Ha           0.00000000 eV
  | ---------------------------
  | Total energy                  :          -1.07641907 Ha         -29.29085318 eV
  | Total energy, T -> 0          :          -1.07641907 Ha         -29.29085318 eV  <-- do not rely on this value for anything but (periodic) metals
  | Electronic free energy        :          -1.07641907 Ha         -29.29085318 eV

  Derived energy quantities:
  | Kinetic energy                :           1.32774663 Ha          36.12982415 eV
  | Electrostatic energy          :          -1.59335176 Ha         -43.35730726 eV
  | Energy correction for multipole
  | error in Hartree potential    :           0.00050353 Ha           0.01370170 eV
  | Sum of eigenvalues per atom                           :         -11.10748197 eV
  | Total energy (T->0) per atom                          :         -14.64542659 eV  <-- do not rely on this value for anything but (periodic) metals
  | Electronic free energy per atom                       :         -14.64542659 eV

  Self-consistency convergence accuracy:
  | Change of charge/spin density : 0.1358E+01 0.5014E+00
  | Change of sum of eigenvalues  : 0.3440E+02 eV
  | Change of total energy        : 0.2349E+02 eV

  End self-consistency iteration #     9       :  max(cpu_time)    wall_clock(cpu1)
  | Time for this iteration                    :        0.027 s           0.027 s
  | Charge density update                      :        0.007 s           0.007 s
  | Density mixing                             :        0.002 s           0.002 s
  | Hartree multipole update                   :        0.001 s           0.001 s
  | Hartree multipole summation                :        0.005 s           0.005 s
  | Integration                                :        0.009 s           0.010 s
  | Solution of K.-S. eqns.                    :        0.001 s           0.001 s
  | Total energy evaluation                    :        0.000 s           0.000 s
------------------------------------------------------------

------------------------------------------------------------
          Begin self-consistency iteration #   10

  Date     :  20220120, Time     :  153005.068
------------------------------------------------------------
  Evaluating new KS density.
  Integration grid: deviation in total charge (<rho> - N_e) =   2.561762E-08
  | <rho_up-rho_dn> = N_up-N_dn =      0.0297; <|rho_up-rho_dn|> =      0.0922
  Pulay mixing of updated and previous charge densities.

  Evaluating partitioned Hartree potential by multipole expansion.
  | Analytical far-field extrapolation by fixed multipoles:
  | Hartree multipole sum: apparent total charge =   0.601997E-05
  Summing up the Hartree potential.
  Time summed over all CPUs for potential: real work        0.033 s, elapsed        0.037 s
  | RMS charge density error from multipole expansion :   0.444065E-02

  Integrating Hamiltonian matrix: batch-based integration.
  Time summed over all CPUs for integration: real work        0.066 s, elapsed        0.070 s

  Updating Kohn-Sham eigenvalues, eigenvectors, occupation numbers, and Fermi level.
  Solving generalized eigenproblem
  Solving real symmetric generalised eigenvalue problem by standard ScaLAPACK.
  Using Cholesky factor for transformation
  Using 1-stage real ELPA solver
  Solving real symmetric generalised eigenvalue problem by standard ScaLAPACK.
  Using Cholesky factor for transformation
  Using 1-stage real ELPA solver
  Determining occupation numbers for Kohn-Sham eigenstates.
  | Chemical potential (Fermi level) in eV                 : -.23480285E+01
  | Error in electron count due to remaining E_F inaccuracy: 0.00000000E+00
  | Maximum occupation number of highest empty state:  0.00E+00

  Current spin moment of the entire structure :
  | N = N_up - N_down :    0.00
  | S                 :    0.00
  | J                 :    1.00

  Highest occupied state (VBM) at     -4.53151062 eV
  | Occupation number:      1.00000000
  | Spin channel:        2

  Lowest unoccupied state (CBM) at     2.20355658 eV
  | Occupation number:      0.00000000
  | Spin channel:        1

  Overall HOMO-LUMO gap:      6.73506720 eV.

  Total energy components:
  | Sum of eigenvalues            :          -0.33408924 Ha          -9.09103076 eV
  | XC energy correction          :          -1.13190583 Ha         -30.80072475 eV
  | XC potential correction       :           1.45712644 Ha          39.65042770 eV
  | Free-atom electrostatic energy:          -0.04766235 Ha          -1.29695843 eV
  | Hartree energy correction     :          -1.10592727 Ha         -30.09381208 eV
  | van der Waals energy corr.    :           0.00000000 Ha           0.00000000 eV
  | Entropy correction            :           0.00000000 Ha           0.00000000 eV
  | ---------------------------
  | Total energy                  :          -1.16245825 Ha         -31.63209832 eV
  | Total energy, T -> 0          :          -1.16245825 Ha         -31.63209832 eV  <-- do not rely on this value for anything but (periodic) metals
  | Electronic free energy        :          -1.16245825 Ha         -31.63209832 eV

  Derived energy quantities:
  | Kinetic energy                :           2.36006893 Ha          64.22074319 eV
  | Electrostatic energy          :          -2.39062135 Ha         -65.05211676 eV
  | Energy correction for multipole
  | error in Hartree potential    :           0.00005584 Ha           0.00151961 eV
  | Sum of eigenvalues per atom                           :          -4.54551538 eV
  | Total energy (T->0) per atom                          :         -15.81604916 eV  <-- do not rely on this value for anything but (periodic) metals
  | Electronic free energy per atom                       :         -15.81604916 eV

  Self-consistency convergence accuracy:
  | Change of charge/spin density : 0.1561E+00 0.6487E-01
  | Change of sum of eigenvalues  : 0.1312E+02 eV
  | Change of total energy        : -.2341E+01 eV

  End self-consistency iteration #    10       :  max(cpu_time)    wall_clock(cpu1)
  | Time for this iteration                    :        0.027 s           0.027 s
  | Charge density update                      :        0.007 s           0.006 s
  | Density mixing                             :        0.002 s           0.003 s
  | Hartree multipole update                   :        0.001 s           0.001 s
  | Hartree multipole summation                :        0.005 s           0.005 s
  | Integration                                :        0.009 s           0.009 s
  | Solution of K.-S. eqns.                    :        0.001 s           0.001 s
  | Total energy evaluation                    :        0.000 s           0.000 s
------------------------------------------------------------

------------------------------------------------------------
          Begin self-consistency iteration #   11

  Date     :  20220120, Time     :  153005.099
------------------------------------------------------------
  Evaluating new KS density.
  Integration grid: deviation in total charge (<rho> - N_e) =   3.866770E-08
  | <rho_up-rho_dn> = N_up-N_dn =      0.0044; <|rho_up-rho_dn|> =      0.2589
  Pulay mixing of updated and previous charge densities.

  Evaluating partitioned Hartree potential by multipole expansion.
  | Analytical far-field extrapolation by fixed multipoles:
  | Hartree multipole sum: apparent total charge =   0.744072E-05
  Summing up the Hartree potential.
  Time summed over all CPUs for potential: real work        0.034 s, elapsed        0.036 s
  | RMS charge density error from multipole expansion :   0.488985E-02

  Integrating Hamiltonian matrix: batch-based integration.
  Time summed over all CPUs for integration: real work        0.070 s, elapsed        0.080 s

  Updating Kohn-Sham eigenvalues, eigenvectors, occupation numbers, and Fermi level.
  Solving generalized eigenproblem
  Solving real symmetric generalised eigenvalue problem by standard ScaLAPACK.
  Using Cholesky factor for transformation
  Using 1-stage real ELPA solver
  Solving real symmetric generalised eigenvalue problem by standard ScaLAPACK.
  Using Cholesky factor for transformation
  Using 1-stage real ELPA solver
  Determining occupation numbers for Kohn-Sham eigenstates.
  | Chemical potential (Fermi level) in eV                 : -.84765447E+00
  | Error in electron count due to remaining E_F inaccuracy: 0.00000000E+00
  | Maximum occupation number of highest empty state:  0.00E+00

  Current spin moment of the entire structure :
  | N = N_up - N_down :    0.00
  | S                 :    0.00
  | J                 :    1.00

  Highest occupied state (VBM) at     -2.98985939 eV
  | Occupation number:      1.00000000
  | Spin channel:        2

  Lowest unoccupied state (CBM) at     2.66030926 eV
  | Occupation number:      0.00000000
  | Spin channel:        1

  Overall HOMO-LUMO gap:      5.65016865 eV.

  Total energy components:
  | Sum of eigenvalues            :          -0.22092514 Ha          -6.01167906 eV
  | XC energy correction          :          -1.22784904 Ha         -33.41147235 eV
  | XC potential correction       :           1.58178444 Ha          43.04254464 eV
  | Free-atom electrostatic energy:          -0.04766235 Ha          -1.29695843 eV
  | Hartree energy correction     :          -1.30585364 Ha         -35.53408555 eV
  | van der Waals energy corr.    :           0.00000000 Ha           0.00000000 eV
  | Entropy correction            :           0.00000000 Ha           0.00000000 eV
  | ---------------------------
  | Total energy                  :          -1.22050573 Ha         -33.21165076 eV
  | Total energy, T -> 0          :          -1.22050573 Ha         -33.21165076 eV  <-- do not rely on this value for anything but (periodic) metals
  | Electronic free energy        :          -1.22050573 Ha         -33.21165076 eV

  Derived energy quantities:
  | Kinetic energy                :           2.48565379 Ha          67.63808091 eV
  | Electrostatic energy          :          -2.47831048 Ha         -67.43825931 eV
  | Energy correction for multipole
  | error in Hartree potential    :           0.00011923 Ha           0.00324442 eV
  | Sum of eigenvalues per atom                           :          -3.00583953 eV
  | Total energy (T->0) per atom                          :         -16.60582538 eV  <-- do not rely on this value for anything but (periodic) metals
  | Electronic free energy per atom                       :         -16.60582538 eV

[...]
  | Change of sum of eigenvalues  : -.1266E-02 eV
  | Change of total energy        : -.4177E-07 eV

  End self-consistency iteration #    23       :  max(cpu_time)    wall_clock(cpu1)
  | Time for this iteration                    :        0.027 s           0.026 s
  | Charge density update                      :        0.007 s           0.006 s
  | Density mixing                             :        0.002 s           0.002 s
  | Hartree multipole update                   :        0.001 s           0.001 s
  | Hartree multipole summation                :        0.004 s           0.005 s
  | Integration                                :        0.010 s           0.010 s
  | Solution of K.-S. eqns.                    :        0.001 s           0.001 s
  | Total energy evaluation                    :        0.000 s           0.000 s
------------------------------------------------------------

------------------------------------------------------------
          Begin self-consistency iteration #   24

  Date     :  20220120, Time     :  153005.488
------------------------------------------------------------
  Evaluating new KS density.
  Integration grid: deviation in total charge (<rho> - N_e) =   3.661960E-11
  | <rho_up-rho_dn> = N_up-N_dn =     -0.0000; <|rho_up-rho_dn|> =      0.0000
  Pulay mixing of updated and previous charge densities.

  Evaluating partitioned Hartree potential by multipole expansion.
  | Analytical far-field extrapolation by fixed multipoles:
  | Hartree multipole sum: apparent total charge =   0.117351E-05
  Summing up the Hartree potential.
  Time summed over all CPUs for potential: real work        0.034 s, elapsed        0.037 s
  | RMS charge density error from multipole expansion :   0.209126E-02

  Integrating Hamiltonian matrix: batch-based integration.
  Time summed over all CPUs for integration: real work        0.073 s, elapsed        0.078 s

  Updating Kohn-Sham eigenvalues, eigenvectors, occupation numbers, and Fermi level.
  Solving generalized eigenproblem
  Solving real symmetric generalised eigenvalue problem by standard ScaLAPACK.
  Using Cholesky factor for transformation
  Using 1-stage real ELPA solver
  Solving real symmetric generalised eigenvalue problem by standard ScaLAPACK.
  Using Cholesky factor for transformation
  Using 1-stage real ELPA solver
  Determining occupation numbers for Kohn-Sham eigenstates.
  | Chemical potential (Fermi level) in eV                 : -.10075927E+02
  | Error in electron count due to remaining E_F inaccuracy: 0.00000000E+00
  | Maximum occupation number of highest empty state:  0.00E+00

  Current spin moment of the entire structure :
  | N = N_up - N_down :    0.00
  | S                 :    0.00
  | J                 :    1.00

  Highest occupied state (VBM) at    -11.78107677 eV
  | Occupation number:      1.00000000
  | Spin channel:        1

  Lowest unoccupied state (CBM) at     1.24635294 eV
  | Occupation number:      0.00000000
  | Spin channel:        2

  Overall HOMO-LUMO gap:     13.02742971 eV.

  Total energy components:
  | Sum of eigenvalues            :          -0.86589326 Ha         -23.56215449 eV
  | XC energy correction          :          -0.78309931 Ha         -21.30921642 eV
  | XC potential correction       :           1.00496064 Ha          27.34637036 eV
  | Free-atom electrostatic energy:          -0.04766235 Ha          -1.29695843 eV
  | Hartree energy correction     :          -0.40165731 Ha         -10.92965142 eV
  | van der Waals energy corr.    :           0.00000000 Ha           0.00000000 eV
  | Entropy correction            :           0.00000000 Ha           0.00000000 eV
  | ---------------------------
  | Total energy                  :          -1.09335159 Ha         -29.75161041 eV
  | Total energy, T -> 0          :          -1.09335159 Ha         -29.75161041 eV  <-- do not rely on this value for anything but (periodic) metals
  | Electronic free energy        :          -1.09335159 Ha         -29.75161041 eV

  Derived energy quantities:
  | Kinetic energy                :           1.45383064 Ha          39.56074450 eV
  | Electrostatic energy          :          -1.76408291 Ha         -48.00313848 eV
  | Energy correction for multipole
  | error in Hartree potential    :           0.00004434 Ha           0.00120654 eV
  | Sum of eigenvalues per atom                           :         -11.78107725 eV
  | Total energy (T->0) per atom                          :         -14.87580520 eV  <-- do not rely on this value for anything but (periodic) metals
  | Electronic free energy per atom                       :         -14.87580520 eV

  Self-consistency convergence accuracy:
  | Change of charge/spin density : 0.5625E-05 0.4557E-05
  | Change of sum of eigenvalues  : -.3901E-03 eV
  | Change of total energy        : -.1332E-07 eV

  End self-consistency iteration #    24       :  max(cpu_time)    wall_clock(cpu1)
  | Time for this iteration                    :        0.028 s           0.027 s
  | Charge density update                      :        0.006 s           0.005 s
  | Density mixing                             :        0.002 s           0.003 s
  | Hartree multipole update                   :        0.001 s           0.001 s
  | Hartree multipole summation                :        0.005 s           0.005 s
  | Integration                                :        0.010 s           0.010 s
  | Solution of K.-S. eqns.                    :        0.001 s           0.002 s
  | Total energy evaluation                    :        0.000 s           0.001 s
------------------------------------------------------------

------------------------------------------------------------
          Begin self-consistency iteration #   25

  Date     :  20220120, Time     :  153005.518
------------------------------------------------------------
  Evaluating new KS density.
  Integration grid: deviation in total charge (<rho> - N_e) =   1.777289E-11
  | <rho_up-rho_dn> = N_up-N_dn =      0.0000; <|rho_up-rho_dn|> =      0.0000
  Pulay mixing of updated and previous charge densities.

  Evaluating partitioned Hartree potential by multipole expansion.
  | Analytical far-field extrapolation by fixed multipoles:
  | Hartree multipole sum: apparent total charge =   0.117353E-05
  Summing up the Hartree potential.
  Time summed over all CPUs for potential: real work        0.034 s, elapsed        0.036 s
  | RMS charge density error from multipole expansion :   0.209127E-02

  Integrating Hamiltonian matrix: batch-based integration.
  Time summed over all CPUs for integration: real work        0.074 s, elapsed        0.079 s

  Updating Kohn-Sham eigenvalues, eigenvectors, occupation numbers, and Fermi level.
  Solving generalized eigenproblem
  Solving real symmetric generalised eigenvalue problem by standard ScaLAPACK.
  Using Cholesky factor for transformation
  Using 1-stage real ELPA solver
  Solving real symmetric generalised eigenvalue problem by standard ScaLAPACK.
  Using Cholesky factor for transformation
  Using 1-stage real ELPA solver
  Determining occupation numbers for Kohn-Sham eigenstates.
  | Chemical potential (Fermi level) in eV                 : -.10074963E+02
  | Error in electron count due to remaining E_F inaccuracy: 0.00000000E+00
  | Maximum occupation number of highest empty state:  0.00E+00

  Current spin moment of the entire structure :
  | N = N_up - N_down :    0.00
  | S                 :    0.00
  | J                 :    1.00

  Highest occupied state (VBM) at    -11.78108064 eV
  | Occupation number:      1.00000000
  | Spin channel:        1

  Lowest unoccupied state (CBM) at     1.24660837 eV
  | Occupation number:      0.00000000
  | Spin channel:        1

  Overall HOMO-LUMO gap:     13.02768901 eV.

  Total energy components:
  | Sum of eigenvalues            :          -0.86589358 Ha         -23.56216301 eV
  | XC energy correction          :          -0.78309919 Ha         -21.30921316 eV
  | XC potential correction       :           1.00496048 Ha          27.34636602 eV
  | Free-atom electrostatic energy:          -0.04766235 Ha          -1.29695843 eV
  | Hartree energy correction     :          -0.40165695 Ha         -10.92964183 eV
  | van der Waals energy corr.    :           0.00000000 Ha           0.00000000 eV
  | Entropy correction            :           0.00000000 Ha           0.00000000 eV
  | ---------------------------
  | Total energy                  :          -1.09335159 Ha         -29.75161041 eV
  | Total energy, T -> 0          :          -1.09335159 Ha         -29.75161041 eV  <-- do not rely on this value for anything but (periodic) metals
  | Electronic free energy        :          -1.09335159 Ha         -29.75161041 eV

  Derived energy quantities:
  | Kinetic energy                :           1.45383033 Ha          39.56073618 eV
  | Electrostatic energy          :          -1.76408273 Ha         -48.00313344 eV
  | Energy correction for multipole
  | error in Hartree potential    :           0.00004434 Ha           0.00120654 eV
  | Sum of eigenvalues per atom                           :         -11.78108150 eV
  | Total energy (T->0) per atom                          :         -14.87580521 eV  <-- do not rely on this value for anything but (periodic) metals
  | Electronic free energy per atom                       :         -14.87580521 eV

  Self-consistency convergence accuracy:
  | Change of charge/spin density : 0.6716E-06 0.4260E-06
  | Change of sum of eigenvalues  : -.8518E-05 eV
  | Change of total energy        : -.4105E-08 eV

  Writing Kohn-Sham eigenvalues.

  Spin-up eigenvalues:

  State    Occupation    Eigenvalue [Ha]    Eigenvalue [eV]
      1       1.00000          -0.432947          -11.78108
      2       0.00000           0.045812            1.24661
      3       0.00000           0.045986            1.25135
      4       0.00000           0.207970            5.65915
      5       0.00000           0.342139            9.31007
      6       0.00000           0.342139            9.31007
      7       0.00000           0.351269            9.55853
      8       0.00000           0.672364           18.29594
      9       0.00000           0.788872           21.46631
     10       0.00000           0.788872           21.46631
     11       0.00000           0.820008           22.31354

  Spin-down eigenvalues:

  State    Occupation    Eigenvalue [Ha]    Eigenvalue [eV]
      1       1.00000          -0.432947          -11.78108
      2       0.00000           0.045818            1.24678
      3       0.00000           0.046023            1.25234
      4       0.00000           0.208041            5.66108
      5       0.00000           0.342139            9.31007
      6       0.00000           0.342139            9.31007
      7       0.00000           0.351282            9.55886
      8       0.00000           0.672393           18.29674
      9       0.00000           0.788872           21.46630
     10       0.00000           0.788872           21.46630
     11       0.00000           0.820008           22.31354

  Current spin moment of the entire structure :
  | N = N_up - N_down :    0.00
  | S                 :    0.00
  | J                 :    1.00

  Highest occupied state (VBM) at    -11.78108064 eV
  | Occupation number:      1.00000000
  | Spin channel:        1

  Lowest unoccupied state (CBM) at     1.24660837 eV
  | Occupation number:      0.00000000
  | Spin channel:        1

  Overall HOMO-LUMO gap:     13.02768901 eV.

  Self-consistency cycle converged.

  End self-consistency iteration #    25       :  max(cpu_time)    wall_clock(cpu1)
  | Time for this iteration                    :        0.028 s           0.029 s
  | Charge density update                      :        0.007 s           0.006 s
  | Density mixing                             :        0.002 s           0.002 s
  | Hartree multipole update                   :        0.001 s           0.001 s
  | Hartree multipole summation                :        0.005 s           0.005 s
  | Integration                                :        0.010 s           0.010 s
  | Solution of K.-S. eqns.                    :        0.001 s           0.002 s
  | Total energy evaluation                    :        0.000 s           0.000 s
------------------------------------------------------------
  Obtaining max. number of non-zero basis functions in each batch .
  Evaluating KS electron density on previously omitted grid points.
  Evaluating non-empirical van der Waals correction (Tkatchenko/Scheffler 2009).
  Performing Hirshfeld analysis of fragment charges and moments.
  ----------------------------------------------------------------------
  | Atom     1: H
  |   Hirshfeld charge        :     -0.00000088
  |   Free atom volume        :     10.31539447
  |   Hirshfeld volume        :      4.10251884
  |   Hirshfeld spin moment   :     -0.00000119
  |   Hirshfeld dipole vector :      0.00000000       0.00000000      -0.06532068
  |   Hirshfeld dipole moment :      0.06532068
  |   Hirshfeld second moments:      0.15791074      -0.00000000       0.00000000
  |                                 -0.00000000       0.15791074      -0.00000000
  |                                  0.00000000      -0.00000000       0.15337051
  ----------------------------------------------------------------------
  | Atom     2: H
  |   Hirshfeld charge        :     -0.00000088
  |   Free atom volume        :     10.31539447
  |   Hirshfeld volume        :      4.10251884
  |   Hirshfeld spin moment   :     -0.00000119
  |   Hirshfeld dipole vector :      0.00000000       0.00000000       0.06532068
  |   Hirshfeld dipole moment :      0.06532068
  |   Hirshfeld second moments:      0.15791074      -0.00000000       0.00000000
  |                                 -0.00000000       0.15791074      -0.00000000
  |                                  0.00000000      -0.00000000       0.15337051
  ----------------------------------------------------------------------


  Total energy components:
  | Sum of eigenvalues            :          -0.86589358 Ha         -23.56216301 eV
  | XC energy correction          :          -0.78309919 Ha         -21.30921316 eV
  | XC potential correction       :           1.00496048 Ha          27.34636602 eV
  | Free-atom electrostatic energy:          -0.04766235 Ha          -1.29695843 eV
  | Hartree energy correction     :          -0.40165695 Ha         -10.92964183 eV
  | van der Waals energy corr.    :          -0.00000024 Ha          -0.00000666 eV
  | Entropy correction            :           0.00000000 Ha           0.00000000 eV
  | ---------------------------
  | Total energy                  :          -1.09335183 Ha         -29.75161707 eV
  | Total energy, T -> 0          :          -1.09335183 Ha         -29.75161707 eV  <-- do not rely on this value for anything but (periodic) metals
  | Electronic free energy        :          -1.09335183 Ha         -29.75161707 eV

  Derived energy quantities:
  | Kinetic energy                :           1.45383033 Ha          39.56073618 eV
  | Electrostatic energy          :          -1.76408273 Ha         -48.00313344 eV
  | Energy correction for multipole
  | error in Hartree potential    :           0.00004434 Ha           0.00120654 eV
  | Sum of eigenvalues per atom                           :         -11.78108150 eV
  | Total energy (T->0) per atom                          :         -14.87580854 eV  <-- do not rely on this value for anything but (periodic) metals
  | Electronic free energy per atom                       :         -14.87580854 eV
  Timings for VdW correction (Tkatchenko-Scheffler 2009 or later):
  | CPU time:        0.003 s, Wall clock time:        0.004 s.

  Energy and forces in a compact form:
  | Total energy uncorrected      :         -0.297516170736597E+02 eV
  | Total energy corrected        :         -0.297516170736597E+02 eV  <-- do not rely on this value for anything but (periodic) metals
  | Electronic free energy        :         -0.297516170736597E+02 eV

  ------------------------------------ 
  Start decomposition of the XC Energy 
  ------------------------------------ 
  Hartree-Fock part   :          0.000000000 Ha              0.000000000 eV
  ------------------------------------ 
  X Energy            :         -0.739345334 Ha            -20.118610158 eV
  C Energy GGA        :         -0.043753856 Ha             -1.190603002 eV
  Total XC Energy     :         -0.783099190 Ha            -21.309213160 eV
  LDA X and C from self-consistent density 
  X Energy LDA        :         -0.647421257 Ha            -17.617228769 eV
  C Energy LDA        :         -0.099705481 Ha             -2.713124174 eV
  ------------------------------------ 
  End decomposition of the XC Energy 
  ------------------------------------ 

------------------------------------------------------------------------------
  Final output of selected total energy values:

  The following output summarizes some interesting total energy values
  at the end of a run (AFTER all relaxation, molecular dynamics, etc.).

  | Total energy of the DFT / Hartree-Fock s.c.f. calculation      :            -29.751617074 eV
  | Final zero-broadening corrected energy (caution - metals only) :            -29.751617074 eV
  | For reference only, the value of 1 Hartree used in FHI-aims is :             27.211384500 eV

  Before relying on these values, please be sure to understand exactly which
  total energy value is referred to by a given number. Different objects may
  all carry the same name 'total energy'. Definitions:

  Total energy of the DFT / Hartree-Fock s.c.f. calculation:
  | Note that this energy does not include ANY quantities calculated after the
  | s.c.f. cycle, in particular not ANY RPA, MP2, etc. many-body perturbation terms.

  Final zero-broadening corrected energy:
  | For metallic systems only, a broadening of the occupation numbers at the Fermi
  | level can be extrapolated back to zero broadening by an electron-gas inspired
  | formula. For all systems that are not real metals, this value can be
  | meaningless and should be avoided.

------------------------------------------------------------------------------

------------------------------------------------------------
          Leaving FHI-aims.
          Date     :  20220120, Time     :  153005.556

          Computational steps:
          | Number of self-consistency cycles          :           25

          Detailed time accounting                     :  max(cpu_time)    wall_clock(cpu1)
          | Total time                                 :        0.855 s           0.943 s
          | Preparation time                           :        0.080 s           0.081 s
          | Grid partitioning                          :        0.007 s           0.007 s
          | Preloading free-atom quantities on grid    :        0.004 s           0.004 s
          | Free-atom superposition energy             :        0.002 s           0.002 s
          | Total time for integrations                :        0.252 s           0.255 s
          | Total time for solution of K.-S. equations :        0.043 s           0.046 s
          | Total time for density update              :        0.173 s           0.148 s
          | Total time for mixing                      :        0.043 s           0.046 s
          | Total time for Hartree multipole update    :        0.034 s           0.033 s
          | Total time for Hartree multipole sum       :        0.119 s           0.120 s
          | Total time for total energy evaluation     :        0.005 s           0.013 s
          | Total time for scaled ZORA corrections     :        0.000 s           0.000 s
          | Total time for vdW correction              :        0.003 s           0.004 s

          Have a nice day.
------------------------------------------------------------
