  MPI-parallelism will be employed.
------------------------------------------------------------
          Invoking FHI-aims ...
          Version 052014
          Git rev. (modified): 096c982 Merge branch master of fhiaims:/pub/localo[...]
          Compiled on 2016/12/16 at 15:22:01 on host login02.hpc.iitd.ac.in.

          When using FHI-aims, please cite the following reference:

          Volker Blum, Ralf Gehrke, Felix Hanke, Paula Havu,
          Ville Havu, Xinguo Ren, Karsten Reuter, and Matthias Scheffler,
          'Ab Initio Molecular Simulations with Numeric Atom-Centered Orbitals: FHI-aims',
          Computer Physics Communications 180, 2175-2196 (2009)

          For any questions about FHI-aims, please visit the aimsclub website
          with its forums and wiki. Contributions to both the forums and the
          wiki are warmly encouraged - they are for you, and everyone is welcome there.

------------------------------------------------------------

  Date     :  20220120, Time     :  152332.094
  Time zero on CPU 1             :   0.124520000000000E-01  s.
  Internal wall clock time zero  :           411924212.094  s.

  Using        8 parallel tasks.
  Task        0 on host csky019 reporting.
  Task        1 on host csky019 reporting.
  Task        2 on host csky019 reporting.
  Task        3 on host csky019 reporting.
  Task        4 on host csky019 reporting.
  Task        5 on host csky019 reporting.
  Task        6 on host csky019 reporting.
  Task        7 on host csky019 reporting.

  Performing system and environment tests:
  | Environment variable OMP_NUM_THREADS correctly set to 1.
  | Stacksize not measured: no C compiler
  | Checking for scalapack...
  | Testing pdtran()...
  | All pdtran() tests passed.

  Obtaining array dimensions for all initial allocations:
  
  -----------------------------------------------------------------------
  Parsing control.in (first pass over file, find array dimensions only).
  The contents of control.in will be repeated verbatim below
  unless switched off by setting 'verbatim_writeout .false.' .
  in the first line of control.in .
  -----------------------------------------------------------------------
  
    xc               pbe
    spin             collinear
    default_initial_moment hund
    relativistic     atomic_zora scalar 1e-9
    occupation_type  gaussian 0.001
    charge        0
    vdw_correction_hirshfeld
    KS_method        scalapack_fast
    mixer            pulay
    charge_mix_param  0.4
    spin_mix_param    0.6
    sc_accuracy_rho  1E-4
    sc_accuracy_eev  1E-5
    sc_accuracy_etot 1E-5
    sc_iter_limit    100
    empty_states     10
  ################################################################################
  #
  #  FHI-aims code project
  # Volker Blum, Fritz Haber Institute Berlin, 2009
  #
  #  Suggested "tight" defaults for H atom (to be pasted into control.in file)
  #
  ################################################################################
    species        H
  #     global species definitions
      nucleus             1
      mass                1.00794
  #
      l_hartree           6
  #
      cut_pot             4.0  2.0  1.0
      basis_dep_cutoff    1e-4
  #
      radial_base         24 7.0
      radial_multiplier   2
      angular_grids       specified
        division   0.1930   50
        division   0.3175  110
        division   0.4293  194
        division   0.5066  302
        division   0.5626  434
  #      division   0.5922  590
  #      division   0.6227  974
  #      division   0.6868 1202
  #      outer_grid  770
        outer_grid  434
  ################################################################################
  #
  #  Definition of "minimal" basis
  #
  ################################################################################
  #     valence basis states
      valence      1  s   1.
  #     ion occupancy
      ion_occ      1  s   0.5
  ################################################################################
  #
  #  Suggested additional basis functions. For production calculations,
  #  uncomment them one after another (the most important basis functions are
  #  listed first).
  #
  #  Basis constructed for dimers: 0.5 A, 0.7 A, 1.0 A, 1.5 A, 2.5 A
  #
  ################################################################################
  #  "First tier" - improvements: -1014.90 meV to -62.69 meV
       hydro 2 s 2.1
       hydro 2 p 3.5
  #  "Second tier" - improvements: -12.89 meV to -1.83 meV
       hydro 1 s 0.85
       hydro 2 p 3.7
       hydro 2 s 1.2
       hydro 3 d 7
  #  "Third tier" - improvements: -0.25 meV to -0.12 meV
  #     hydro 4 f 11.2
  #     hydro 3 p 4.8
  #     hydro 4 d 9
  #     hydro 3 s 3.2
  ################################################################################
  #
  # For methods that use the localized form of the "resolution of identity" for
  # the two-electron Coulomb operator (RI_method LVL), particularly Hartree-Fock and
  # hybrid density functional calculations, the highest accuracy can be obtained by
  # uncommenting the line beginning with "for_aux"  below, thus adding an extra g radial
  # function to the construction of the product basis set for the expansion.
  # See Ref. New J. Phys. 17, 093020 (2015) for more information, particularly Figs. 1 and 6.
  #
  ################################################################################
  #
  # for_aux hydro 5 g 6.0
  
  -----------------------------------------------------------------------
  Completed first pass over input file control.in .
  -----------------------------------------------------------------------
  
  
  -----------------------------------------------------------------------
  Parsing geometry.in (first pass over file, find array dimensions only).
  The contents of geometry.in will be repeated verbatim below
  unless switched off by setting 'verbatim_writeout .false.' .
  in the first line of geometry.in .
  -----------------------------------------------------------------------
  
  atom 0 0 0 H
  atom 0 0 0.95 H
  
  -----------------------------------------------------------------------
  Completed first pass over input file geometry.in .
  -----------------------------------------------------------------------
  

  Basic array size parameters:
  | Number of species                 :        1
  | Number of atoms                   :        2
  | Max. basis fn. angular momentum   :        2
  | Max. atomic/ionic basis occupied n:        1
  | Max. number of basis fn. types    :        2
  | Max. radial fns per species/type  :        6
  | Max. logarithmic grid size        :     1131
  | Max. radial integration grid size :       49
  | Max. angular integration grid size:      434
  | Max. angular grid division number :        8
  | Radial grid for Hartree potential :     1131
  | Number of spin channels           :        2

------------------------------------------------------------
          Reading file control.in.
------------------------------------------------------------
  XC: Using PBE gradient-corrected functionals.
  Spin treatment: Spin density functional theory - collinear spins.
  Initial spin moment per atom set according to Hund's rules.
  Scalar relativistic treatment of kinetic energy: on-site free-atom approximation to ZORA.
  Occupation type: Gaussian broadening, width =   0.100000E-02 eV.
  Charge =   0.000000E+00: Neutral system requested explicitly.
  Using non-empirical van der Waals correction (Hirshfeld partitioning):
  Kohn-Sham eigenvalues and eigenfunctions calculated by the ELPA eigensolver library.
  Using pulay charge density mixing.
  Charge density mixing - mixing parameter:     0.4000
  Spin density mixing - mixing parameter:     0.6000
  Convergence accuracy of self-consistent charge density: 0.1000E-03
  Convergence accuracy of sum of eigenvalues: 0.1000E-04
  Convergence accuracy of total energy: 0.1000E-04
  Maximum number of s.-c. iterations  :   100
  Number of empty states per atom:       10
 
  Reading configuration options for species H                   .
  | Found nuclear charge :   1.0000
  | Found atomic mass :    1.00794000000000      amu
  | Found l_max for Hartree potential  :   6
  | Found cutoff potl. onset [A], width [A], scale factor :    4.00000    2.00000    1.00000
  | Threshold for basis-dependent cutoff potential is   0.100000E-03
  | Found data for basic radial integration grid :    24 points, outermost radius =    7.000 A
  | Found multiplier for basic radial grid :   2
  | Found angular grid specification: user-specified.
  | Specified grid contains     6 separate shells.
  | Check grid settings after all constraints further below.
  | Found free-atom valence shell :  1 s   1.000
  | No ionic wave fns used. Skipping ion_occ.
  | Found hydrogenic basis function :  2 s   2.100
  | Found hydrogenic basis function :  2 p   3.500
  | Found hydrogenic basis function :  1 s   0.850
  | Found hydrogenic basis function :  2 p   3.700
  | Found hydrogenic basis function :  2 s   1.200
  | Found hydrogenic basis function :  3 d   7.000
  Species H                   : Missing cutoff potential type.
  Defaulting to exp(1/x)/(1-x)^2 type cutoff potential.
  Species H : No 'logarithmic' tag. Using default grid for free atom:
  | Default logarithmic grid data [bohr] : 0.1000E-03 0.1000E+03 0.1012E+01
  Species H : On-site basis accuracy parameter (for Gram-Schmidt orthonormalisation) not specified.
  Using default value basis_acc =  0.1000000E-03.
  Species H                   : Using default innermost maximum threshold i_radial=  2 for radial functions.
  Species H                   : Default cutoff onset for free atom density etc. : 0.40000000E+01 AA.
  Species H                   : Basic radial grid will be enhanced according to radial_multiplier =   2, to contain    49 grid points.
 
  Finished reading input file 'control.in'. Consistency checks are next.
 
  Target number of points in a grid batch is not set. Defaulting to  100
  Method for grid partitioning is not set. Defaulting to parallel hash+maxmin partitioning.
  Batch size limit is not set. Defaulting to    200
  By default, will store active basis functions for each batch.
  If in need of memory, prune_basis_once .false. can be used to disable this option.
  communication_type for Hartree potential was not specified.
  Defaulting to calc_hartree .
  Pulay mixer: Number of relevant iterations not set.
  Defaulting to    8 iterations.
  Pulay mixer: Number of initial linear mixing iterations not set.
  Defaulting to    0 iterations.
  Work space size for distributed Hartree potential not set.
  Defaulting to   0.200000E+03 MB.
  Algorithm-dependent basis array size parameters:
  | n_max_pulay                         :        8
  Calculation of forces was not defined in control.in. No forces will be calculated.
  Geometry relaxation not requested: no relaxation will be performed.
  No accuracy limit for integral partition fn. given. Defaulting to 0.1000E-14.
  No threshold value for u(r) in integrations given. Defaulting to 0.1000E-05.
  No accuracy for occupation numbers given. Defaulting to 0.1000E-07.
  No threshold value for occupation numbers given. Defaulting to 0.0000E+00.
  No accuracy for fermi level given. Defaulting to 0.1000E-19.
  Maximum # of iterations to find E_F not set. Defaulting to  200.
  Will not use alltoall communication since running on < 1024 CPUs.
  Threshold for basis singularities not set.
  Default threshold for basis singularities: 0.1000E-04
  partition_type (choice of integration weights) for integrals was not specified.
  | Using a version of the partition function of Stratmann and coworkers ('stratmann_smoother').
  | At each grid point, the set of atoms used to build the partition table is smoothly restricted to
  | only those atoms whose free-atom density would be non-zero at that grid point.
  Partitioning for Hartree potential was not defined. Using partition_type for integrals.
  | Adjusted default value of keyword multip_moments_threshold to:       0.10000000E-11
  | This value may affect high angular momentum components of the Hartree potential in periodic systems.
  No q(lm)/r^(l+1) cutoff set for long-range Hartree potential.
  | Using default value of  0.100000E-09 .
  | Verify using the multipole_threshold keyword.
  Defaulting to new monopole extrapolation.
  Density update method: automatic selection selected.
------------------------------------------------------------


------------------------------------------------------------
          Reading geometry description geometry.in.
------------------------------------------------------------
  Input structure read successfully.
  The structure contains        2 atoms,  and a total of          2.000 electrons.

  Input geometry:
  | No unit cell requested.
  | Atomic structure:
  |       Atom                x [A]            y [A]            z [A]
  |    1: Species H              0.000000         0.000000         0.000000
  |    2: Species H              0.000000         0.000000         0.950000
  |

  | The smallest distance between any two atoms is         0.95000000 AA.
  |
  | The first atom of this pair is atom number                      1 .
  | The second atom of this pair is atom number                     2 .

  Initial moments and charges:
  |  Atom   Moment         Charge        Species
  |     1  (Hund's rule)   0.000000E+00   H
  |     2  (Hund's rule)   0.000000E+00   H

  Structure-dependent array size parameters: 
  | Number of distinct atom types in initial rho :        1
  | Maximum number of distinct radial functions  :        7
  | Maximum number of basis functions            :       30
  | Number of Kohn-Sham states (occupied + empty):       11
------------------------------------------------------------

------------------------------------------------------------
          Preparing all fixed parts of the calculation.
------------------------------------------------------------
  Determining machine precision:
    2.225073858507201E-308
  Setting up grids for atomic and cluster calculations.

  Creating wave function, potential, and density for free atoms.

  Species: H

  List of occupied orbitals and eigenvalues:
    n    l              occ      energy [Ha]    energy [eV]
    1    0           1.0000        -0.238386        -6.4868

  Spin-polarized or charged system:
  Charge density initialized according to selected moments and charges.

  Creating spin-polarized density from free atoms.

  Species: H
  Charge:   0.000000
  applying Hund's rules ...

  List of occupied orbitals and eigenvalues:
    n    l      energy [Ha]    energy [eV]    occupation
  Spin-up
    1    0        -0.278991        -7.5917     1.00000000
  Spin-down
    1    0         0.090850         2.4721     0.00000000

  Creating fixed part of basis set: Ionic, confined, hydrogenic.
 
  H                    hydrogenic:
 
  List of hydrogenic basis orbitals: 
    n    l      effective z      eigenvalue [eV]  inner max. [A]     outer max. [A]     outer radius [A]   
    2    0         2.100000       -14.9965           0.193243           1.317208           5.373006
    2    1         3.500000       -41.6672           0.602369           0.602369           4.056063
    1    0         0.850000        -9.8292           0.624871           0.624871           5.373006
    2    1         3.700000       -46.5653           0.573622           0.573622           3.910002
    2    0         1.200000        -4.5995           0.334980           2.228188           5.505995
    3    2         7.000000       -74.0753           0.680699           0.680699           3.769201
 

  Adding cutoff potential to free-atom effective potential.
  Creating atomic-like basis functions for current effective potential.

  Species H                   :

  List of atomic basis orbitals and eigenvalues:
    n    l      energy [Ha]    energy [eV]    outer radius [A]
    1    0        -0.238386        -6.4868       5.373006

  Assembling full basis from fixed parts.
  | Species H :   atomic orbital   1 s accepted.
  | Species H :    hydro orbital   2 s accepted.
  | Species H :    hydro orbital   1 s accepted.
  | Species H :    hydro orbital   2 s accepted.
  | Species H :    hydro orbital   2 p accepted.
  | Species H :    hydro orbital   2 p accepted.
  | Species H :    hydro orbital   3 d accepted.
 
  Basis size parameters after reduction:
  | Total number of radial functions:        7
  | Total number of basis functions :       30
 
  Testing on-site integration grid accuracy.
  |  Species  Function  <phi|h_atom|phi> (log., in eV)  <phi|h_atom|phi> (rad., in eV)
           1        1                 -6.4870767962                 -6.4871688290
           1        2                 13.5032046589                 13.5028982997
           1        3                 32.8195184817                 32.8119941656
           1        4                 33.8513856511                 33.7670005767 ***
           1        5                 28.8544614965                 28.8544615203
           1        6                 59.6326952547                 59.6327656460
           1        7                 60.2719308513                 60.2719305949
 * Note: Onsite integrals marked "***" above are less accurate than
 * onsite_accuracy_threshold =    0.03000 eV. Usually, this is harmless.
 * When in doubt, tighten the "radial" and/or "radial_multiplier" flags to check.

  Preparing densities etc. for the partition functions (integrals / Hartree potential).

  Preparations completed.
  max(cpu_time)          :      0.080 s.
  Wall clock time (cpu1) :      0.081 s.
------------------------------------------------------------

------------------------------------------------------------
          Begin self-consistency loop: Initialization.

          Date     :  20220120, Time     :  152332.253
------------------------------------------------------------

  Initializing index lists of integration centers etc. from given atomic structure:
  | Number of centers in hartree potential         :         2
  | Number of centers in hartree multipole         :         2
  | Number of centers in electron density summation:         2
  | Number of centers in basis integrals           :         2
  | Number of centers in integrals                 :         2
  Using modified Scalapack Eigenvalue solver (ELPA)
  * Using 8 tasks for Scalapack Eigenvalue solver.
  Detailed listing of tasks and assigned k-points:
  (for non-periodic systems, the "k-point" denotes an internal label only)
   Task     0 k-point     1 on csky019
   Task     1 k-point     1 on csky019
   Task     2 k-point     1 on csky019
   Task     3 k-point     1 on csky019
   Task     4 k-point     1 on csky019
   Task     5 k-point     1 on csky019
   Task     6 k-point     1 on csky019
   Task     7 k-point     1 on csky019
  Tasks:     8 split into      4 X      2 BLACS grid
  Calculating blocksize based on n_basis =           30 max_nprow =            4 max_npcol =            2
  Scalapack blocksize set to:            4
  Required Scalapack workspace - INTEGER:            1 REAL:             1
  Partitioning the integration grid into batches with parallel hashing+maxmin method.
  | Number of batches:      445
  | Maximal batch size:     197
  | Minimal batch size:      49
  | Average batch size:      64.944
  | Standard deviation of batch sizes:      18.525

  Integration load balanced across     8 MPI tasks.
  Work distribution over tasks is as follows:
  Task     0 has       3581 integration points.
  Task     1 has       3581 integration points.
  Task     2 has       3589 integration points.
  Task     3 has       3626 integration points.
  Task     4 has       3595 integration points.
  Task     5 has       3659 integration points.
  Task     6 has       3680 integration points.
  Task     7 has       3589 integration points.
  Initializing partition tables, free-atom densities, potentials, etc. across the integration grid (initialize_grid_storage).
  | initialize_grid_storage: Actual outermost partition radius vs. multipole_radius_free
  | (-- VB: in principle, multipole_radius_free should be larger, hence this output)
  | Species        1: outer_partition_radius =              6.000000000000000 AA, multipole_radius_free =              6.071692442739658 AA.
  | Original list of interatomic distances with           2 x          2 entries is created.
  | Net number of integration points:    28900
  | of which are non-zero points    :    26960
  Obtaining max. number of non-zero basis functions in each batch (get_n_compute_maxes).
  | Maximal number of non-zero basis functions:       30 in task     0
  | Maximal number of non-zero basis functions:       30 in task     1
  | Maximal number of non-zero basis functions:       30 in task     2
  | Maximal number of non-zero basis functions:       30 in task     3
  | Maximal number of non-zero basis functions:       30 in task     4
  | Maximal number of non-zero basis functions:       30 in task     5
  | Maximal number of non-zero basis functions:       30 in task     6
  | Maximal number of non-zero basis functions:       30 in task     7
  Selecting the method for density update.
  Loop over occupied states selected for charge density update.
  Integrating Hamiltonian matrix: batch-based integration.
  Time summed over all CPUs for integration: real work        0.089 s, elapsed        0.109 s
  Integrating overlap matrix.
  Time summed over all CPUs for integration: real work        0.023 s, elapsed        0.032 s
  Deallocating overlap matrix.

  Updating Kohn-Sham eigenvalues, eigenvectors, occupation numbers, and Fermi level.
  Solving generalized eigenproblem
  Solving real symmetric generalised eigenvalue problem by standard ScaLAPACK.
  Transforming overlap matrix with ScaLAPACK and checking for singularities.
  : Overlap matrix is nonsingular, using Cholesky decomposition
  | Lowest eigenvalue:  0.989477E-03
  Factoring overlap matrix with Cholesky decomposition
  Using Cholesky factor for transformation
  Using 1-stage real ELPA solver
  Solving real symmetric generalised eigenvalue problem by standard ScaLAPACK.
  Using Cholesky factor for transformation
  Using 1-stage real ELPA solver
  Determining occupation numbers for Kohn-Sham eigenstates.
  | Chemical potential (Fermi level) in eV                 : -.18401233E+01
  | Error in electron count due to remaining E_F inaccuracy: 0.00000000E+00
  | Maximum occupation number of highest empty state:  0.00E+00

  Writing Kohn-Sham eigenvalues.

  Spin-up eigenvalues:

  State    Occupation    Eigenvalue [Ha]    Eigenvalue [eV]
      1       1.00000          -0.506792          -13.79050
      2       1.00000          -0.100726           -2.74089
      3       0.00000           0.016322            0.44415
      4       0.00000           0.088837            2.41739
      5       0.00000           0.219100            5.96202
      6       0.00000           0.219100            5.96202
      7       0.00000           0.323678            8.80772
      8       0.00000           0.421657           11.47386
      9       0.00000           0.592347           16.11859
     10       0.00000           0.630535           17.15772
     11       0.00000           0.630535           17.15772

  Spin-down eigenvalues:

  State    Occupation    Eigenvalue [Ha]    Eigenvalue [eV]
      1       0.00000           0.099402            2.70487
      2       0.00000           0.116060            3.15814
      3       0.00000           0.503892           13.71159
      4       0.00000           0.543651           14.79350
      5       0.00000           1.126567           30.65545
      6       0.00000           1.126567           30.65545
      7       0.00000           1.291000           35.12991
      8       0.00000           1.495879           40.70495
      9       0.00000           1.495879           40.70495
     10       0.00000           1.527901           41.57630
     11       0.00000           1.611550           43.85250

  Current spin moment of the entire structure :
  | N = N_up - N_down :    2.00
  | S                 :    1.00
  | J                 :    3.00

  Highest occupied state (VBM) at     -2.74088769 eV
  | Occupation number:      1.00000000
  | Spin channel:        1

  Lowest unoccupied state (CBM) at     0.44415491 eV
  | Occupation number:      0.00000000
  | Spin channel:        1

  Overall HOMO-LUMO gap:      3.18504260 eV.
  Calculating total energy contributions from superposition of free atom densities.

  Total energy components:
  | Sum of eigenvalues            :          -0.60751736 Ha         -16.53138855 eV
  | XC energy correction          :          -0.66608466 Ha         -18.12508584 eV
  | XC potential correction       :           0.85843623 Ha          23.35923825 eV
  | Free-atom electrostatic energy:          -0.45475550 Ha         -12.37452678 eV
  | Hartree energy correction     :           0.00000000 Ha           0.00000000 eV
  | van der Waals energy corr.    :           0.00000000 Ha           0.00000000 eV
  | Entropy correction            :           0.00000000 Ha           0.00000000 eV
  | ---------------------------
  | Total energy                  :          -0.86992130 Ha         -23.67176292 eV
  | Total energy, T -> 0          :          -0.86992130 Ha         -23.67176292 eV  <-- do not rely on this value for anything but (periodic) metals
  | Electronic free energy        :          -0.86992130 Ha         -23.67176292 eV

  Derived energy quantities:
  | Kinetic energy                :           1.11987583 Ha          30.47337188 eV
  | Electrostatic energy          :          -1.32371247 Ha         -36.02004896 eV
  | Energy correction for multipole
  | error in Hartree potential    :           0.00000000 Ha           0.00000000 eV
  | Sum of eigenvalues per atom                           :          -8.26569427 eV
  | Total energy (T->0) per atom                          :         -11.83588146 eV  <-- do not rely on this value for anything but (periodic) metals
  | Electronic free energy per atom                       :         -11.83588146 eV
  Initialize hartree_potential_storage
  Max. number of atoms included in rho_multipole:            2

  End scf initialization - timings             :  max(cpu_time)    wall_clock(cpu1)
  | Time for scf. initialization               :        0.048 s           0.049 s
  | Boundary condition initialization          :        0.000 s           0.001 s
  | Integration                                :        0.018 s           0.018 s
  | Solution of K.-S. eqns.                    :        0.010 s           0.010 s
  | Grid partitioning                          :        0.007 s           0.007 s
  | Preloading free-atom quantities on grid    :        0.004 s           0.004 s
  | Free-atom superposition energy             :        0.003 s           0.003 s
  | Total energy evaluation                    :        0.000 s           0.001 s
------------------------------------------------------------

------------------------------------------------------------
          Begin self-consistency iteration #    1

  Date     :  20220120, Time     :  152332.302
------------------------------------------------------------
  Evaluating new KS density.
  Integration grid: deviation in total charge (<rho> - N_e) =   3.229323E-07
  | <rho_up-rho_dn> = N_up-N_dn =      2.0000; <|rho_up-rho_dn|> =      2.0481
  Pulay mixing of updated and previous charge densities.

  Evaluating partitioned Hartree potential by multipole expansion.
  | Analytical far-field extrapolation by fixed multipoles:
  | Hartree multipole sum: apparent total charge =  -0.314326E-05
  Summing up the Hartree potential.
  Time summed over all CPUs for potential: real work        0.035 s, elapsed        0.042 s
  | RMS charge density error from multipole expansion :   0.574738E-03

  Integrating Hamiltonian matrix: batch-based integration.
  Time summed over all CPUs for integration: real work        0.070 s, elapsed        0.082 s

  Updating Kohn-Sham eigenvalues, eigenvectors, occupation numbers, and Fermi level.
  Solving generalized eigenproblem
  Solving real symmetric generalised eigenvalue problem by standard ScaLAPACK.
  Using Cholesky factor for transformation
  Using 1-stage real ELPA solver
  Solving real symmetric generalised eigenvalue problem by standard ScaLAPACK.
  Using Cholesky factor for transformation
  Using 1-stage real ELPA solver
  Determining occupation numbers for Kohn-Sham eigenstates.
  | Chemical potential (Fermi level) in eV                 : -.24055269E+01
  | Error in electron count due to remaining E_F inaccuracy: 0.00000000E+00
  | Maximum occupation number of highest empty state:  0.00E+00

  Writing Kohn-Sham eigenvalues.

  Spin-up eigenvalues:

  State    Occupation    Eigenvalue [Ha]    Eigenvalue [eV]
      1       1.00000          -0.341241           -9.28565
      2       0.00000           0.072745            1.97949
      3       0.00000           0.077441            2.10728
      4       0.00000           0.203485            5.53711
      5       0.00000           0.286053            7.78389
      6       0.00000           0.286053            7.78389
      7       0.00000           0.400619           10.90140
      8       0.00000           0.596299           16.22612
      9       0.00000           0.765685           20.83534
     10       0.00000           0.765685           20.83534
     11       0.00000           0.812101           22.09840

  Spin-down eigenvalues:

  State    Occupation    Eigenvalue [Ha]    Eigenvalue [eV]
      1       1.00000          -0.173076           -4.70965
      2       0.00000           0.090796            2.47067
      3       0.00000           0.097007            2.63968
      4       0.00000           0.251300            6.83822
      5       0.00000           0.391383           10.65006
      6       0.00000           0.391383           10.65006
      7       0.00000           0.474831           12.92081
      8       0.00000           0.682714           18.57760
      9       0.00000           0.844043           22.96757
     10       0.00000           0.850303           23.13791
     11       0.00000           0.850303           23.13791

  Current spin moment of the entire structure :
  | N = N_up - N_down :    0.00
  | S                 :    0.00
  | J                 :    1.00

  Highest occupied state (VBM) at     -4.70964803 eV
  | Occupation number:      1.00000000
  | Spin channel:        2

  Lowest unoccupied state (CBM) at     1.97949372 eV
  | Occupation number:      0.00000000
  | Spin channel:        1

  Overall HOMO-LUMO gap:      6.68914175 eV.

  Total energy components:
  | Sum of eigenvalues            :          -0.51431766 Ha         -13.99529557 eV
  | XC energy correction          :          -0.35404768 Ha          -9.63412748 eV
  | XC potential correction       :           0.45577121 Ha          12.40216556 eV
  | Free-atom electrostatic energy:          -0.45475550 Ha         -12.37452678 eV
  | Hartree energy correction     :          -0.01835283 Ha          -0.49940604 eV
  | van der Waals energy corr.    :           0.00000000 Ha           0.00000000 eV
  | Entropy correction            :           0.00000000 Ha           0.00000000 eV
  | ---------------------------
  | Total energy                  :          -0.88570246 Ha         -24.10119032 eV
  | Total energy, T -> 0          :          -0.88570246 Ha         -24.10119032 eV  <-- do not rely on this value for anything but (periodic) metals
  | Electronic free energy        :          -0.88570246 Ha         -24.10119032 eV

  Derived energy quantities:
  | Kinetic energy                :           0.85696669 Ha          23.31925024 eV
  | Electrostatic energy          :          -1.38862148 Ha         -37.78631308 eV
  | Energy correction for multipole
  | error in Hartree potential    :          -0.00014649 Ha          -0.00398629 eV
  | Sum of eigenvalues per atom                           :          -6.99764779 eV
  | Total energy (T->0) per atom                          :         -12.05059516 eV  <-- do not rely on this value for anything but (periodic) metals
  | Electronic free energy per atom                       :         -12.05059516 eV

  Self-consistency convergence accuracy:
  | Change of charge/spin density : 0.3895E-01 0.3895E-01
  | Change of sum of eigenvalues  : 0.2536E+01 eV
  | Change of total energy        : -.4294E+00 eV

  End self-consistency iteration #     1       :  max(cpu_time)    wall_clock(cpu1)
  | Time for this iteration                    :        0.031 s           0.030 s
  | Charge density update                      :        0.008 s           0.007 s
  | Density mixing                             :        0.001 s           0.001 s
  | Hartree multipole update                   :        0.001 s           0.001 s
  | Hartree multipole summation                :        0.006 s           0.007 s
  | Integration                                :        0.010 s           0.010 s
  | Solution of K.-S. eqns.                    :        0.002 s           0.002 s
  | Total energy evaluation                    :        0.000 s           0.001 s
------------------------------------------------------------

------------------------------------------------------------
          Begin self-consistency iteration #    2

  Date     :  20220120, Time     :  152332.335
------------------------------------------------------------
  Evaluating new KS density.
  Integration grid: deviation in total charge (<rho> - N_e) =   1.937594E-07
  | <rho_up-rho_dn> = N_up-N_dn =     -2.0000; <|rho_up-rho_dn|> =      2.0000
  Pulay mixing of updated and previous charge densities.

  Evaluating partitioned Hartree potential by multipole expansion.
  | Analytical far-field extrapolation by fixed multipoles:
  | Hartree multipole sum: apparent total charge =  -0.308997E-05
  Summing up the Hartree potential.
  Time summed over all CPUs for potential: real work        0.035 s, elapsed        0.041 s
  | RMS charge density error from multipole expansion :   0.539073E-03

  Integrating Hamiltonian matrix: batch-based integration.
  Time summed over all CPUs for integration: real work        0.071 s, elapsed        0.079 s

  Updating Kohn-Sham eigenvalues, eigenvectors, occupation numbers, and Fermi level.
  Solving generalized eigenproblem
  Solving real symmetric generalised eigenvalue problem by standard ScaLAPACK.
  Using Cholesky factor for transformation
  Using 1-stage real ELPA solver
  Solving real symmetric generalised eigenvalue problem by standard ScaLAPACK.
  Using Cholesky factor for transformation
  Using 1-stage real ELPA solver
  Determining occupation numbers for Kohn-Sham eigenstates.
  | Chemical potential (Fermi level) in eV                 : -.53135999E+01
  | Error in electron count due to remaining E_F inaccuracy: 0.00000000E+00
  | Maximum occupation number of highest empty state:  0.00E+00

  Current spin moment of the entire structure :
  | N = N_up - N_down :    0.00
  | S                 :    0.00
  | J                 :    1.00

  Highest occupied state (VBM) at     -6.63714584 eV
  | Occupation number:      1.00000000
  | Spin channel:        2

  Lowest unoccupied state (CBM) at     0.15004334 eV
  | Occupation number:      0.00000000
  | Spin channel:        1

  Overall HOMO-LUMO gap:      6.78718918 eV.

  Total energy components:
  | Sum of eigenvalues            :          -0.70502334 Ha         -19.18466114 eV
  | XC energy correction          :          -0.55762639 Ha         -15.17378601 eV
  | XC potential correction       :           0.72001755 Ha          19.59267429 eV
  | Free-atom electrostatic energy:          -0.45475550 Ha         -12.37452678 eV
  | Hartree energy correction     :          -0.02026174 Ha          -0.55135006 eV
  | van der Waals energy corr.    :           0.00000000 Ha           0.00000000 eV
  | Entropy correction            :           0.00000000 Ha           0.00000000 eV
  | ---------------------------
  | Total energy                  :          -1.01764942 Ha         -27.69164970 eV
  | Total energy, T -> 0          :          -1.01764942 Ha         -27.69164970 eV  <-- do not rely on this value for anything but (periodic) metals
  | Electronic free energy        :          -1.01764942 Ha         -27.69164970 eV

  Derived energy quantities:
  | Kinetic energy                :           0.92833888 Ha          25.26138622 eV
  | Electrostatic energy          :          -1.38836192 Ha         -37.77924990 eV
  | Energy correction for multipole
  | error in Hartree potential    :          -0.00014123 Ha          -0.00384302 eV
  | Sum of eigenvalues per atom                           :          -9.59233057 eV
  | Total energy (T->0) per atom                          :         -13.84582485 eV  <-- do not rely on this value for anything but (periodic) metals
  | Electronic free energy per atom                       :         -13.84582485 eV

  Self-consistency convergence accuracy:
  | Change of charge/spin density : 0.1157E+00 0.2804E+00
  | Change of sum of eigenvalues  : -.5189E+01 eV
  | Change of total energy        : -.3590E+01 eV

  End self-consistency iteration #     2       :  max(cpu_time)    wall_clock(cpu1)
  | Time for this iteration                    :        0.028 s           0.028 s
  | Charge density update                      :        0.007 s           0.006 s
  | Density mixing                             :        0.001 s           0.001 s
  | Hartree multipole update                   :        0.001 s           0.002 s
  | Hartree multipole summation                :        0.005 s           0.005 s
  | Integration                                :        0.010 s           0.011 s
  | Solution of K.-S. eqns.                    :        0.002 s           0.002 s
  | Total energy evaluation                    :        0.000 s           0.001 s
------------------------------------------------------------

------------------------------------------------------------
          Begin self-consistency iteration #    3

  Date     :  20220120, Time     :  152332.364
------------------------------------------------------------
  Evaluating new KS density.
  Integration grid: deviation in total charge (<rho> - N_e) =   1.894491E-07
  | <rho_up-rho_dn> = N_up-N_dn =     -1.9333; <|rho_up-rho_dn|> =      1.9333
  Pulay mixing of updated and previous charge densities.

  Evaluating partitioned Hartree potential by multipole expansion.
  | Analytical far-field extrapolation by fixed multipoles:
  | Hartree multipole sum: apparent total charge =  -0.315385E-05
  Summing up the Hartree potential.
  Time summed over all CPUs for potential: real work        0.033 s, elapsed        0.034 s
  | RMS charge density error from multipole expansion :   0.508600E-03

  Integrating Hamiltonian matrix: batch-based integration.
  Time summed over all CPUs for integration: real work        0.069 s, elapsed        0.073 s

  Updating Kohn-Sham eigenvalues, eigenvectors, occupation numbers, and Fermi level.
  Solving generalized eigenproblem
  Solving real symmetric generalised eigenvalue problem by standard ScaLAPACK.
  Using Cholesky factor for transformation
  Using 1-stage real ELPA solver
  Solving real symmetric generalised eigenvalue problem by standard ScaLAPACK.
  Using Cholesky factor for transformation
  Using 1-stage real ELPA solver
  Determining occupation numbers for Kohn-Sham eigenstates.
  | Chemical potential (Fermi level) in eV                 : -.44174666E+01
  | Error in electron count due to remaining E_F inaccuracy: 0.00000000E+00
  | Maximum occupation number of highest empty state:  0.00E+00

  Current spin moment of the entire structure :
  | N = N_up - N_down :    0.00
  | S                 :    0.00
  | J                 :    1.00

  Highest occupied state (VBM) at     -5.66911422 eV
  | Occupation number:      1.00000000
  | Spin channel:        2

  Lowest unoccupied state (CBM) at     1.07300509 eV
  | Occupation number:      0.00000000
  | Spin channel:        1

  Overall HOMO-LUMO gap:      6.74211931 eV.

  Total energy components:
  | Sum of eigenvalues            :          -0.63012697 Ha         -17.14662729 eV
  | XC energy correction          :          -0.48677694 Ha         -13.24587443 eV
  | XC potential correction       :           0.62787443 Ha          17.08533247 eV
  | Free-atom electrostatic energy:          -0.45475550 Ha         -12.37452678 eV
  | Hartree energy correction     :          -0.01361072 Ha          -0.37036653 eV
  | van der Waals energy corr.    :           0.00000000 Ha           0.00000000 eV
  | Entropy correction            :           0.00000000 Ha           0.00000000 eV
  | ---------------------------
  | Total energy                  :          -0.95739570 Ha         -26.05206256 eV
  | Total energy, T -> 0          :          -0.95739570 Ha         -26.05206256 eV  <-- do not rely on this value for anything but (periodic) metals
  | Electronic free energy        :          -0.95739570 Ha         -26.05206256 eV

  Derived energy quantities:
  | Kinetic energy                :           0.90564848 Ha          24.64394894 eV
  | Electrostatic energy          :          -1.37626724 Ha         -37.45013707 eV
  | Energy correction for multipole
  | error in Hartree potential    :          -0.00013189 Ha          -0.00358901 eV
  | Sum of eigenvalues per atom                           :          -8.57331365 eV
  | Total energy (T->0) per atom                          :         -13.02603128 eV  <-- do not rely on this value for anything but (periodic) metals
  | Electronic free energy per atom                       :         -13.02603128 eV

  Self-consistency convergence accuracy:
  | Change of charge/spin density : 0.1169E+00 0.2653E+00
  | Change of sum of eigenvalues  : 0.2038E+01 eV
  | Change of total energy        : 0.1640E+01 eV

  End self-consistency iteration #     3       :  max(cpu_time)    wall_clock(cpu1)
  | Time for this iteration                    :        0.025 s           0.025 s
  | Charge density update                      :        0.006 s           0.006 s
  | Density mixing                             :        0.001 s           0.002 s
  | Hartree multipole update                   :        0.001 s           0.001 s
  | Hartree multipole summation                :        0.005 s           0.005 s
  | Integration                                :        0.009 s           0.009 s
  | Solution of K.-S. eqns.                    :        0.001 s           0.001 s
  | Total energy evaluation                    :        0.000 s           0.000 s
------------------------------------------------------------

------------------------------------------------------------
          Begin self-consistency iteration #    4

  Date     :  20220120, Time     :  152332.391
------------------------------------------------------------
  Evaluating new KS density.
  Integration grid: deviation in total charge (<rho> - N_e) =   1.908595E-07
  | <rho_up-rho_dn> = N_up-N_dn =     -1.9529; <|rho_up-rho_dn|> =      1.9529
  Pulay mixing of updated and previous charge densities.

  Evaluating partitioned Hartree potential by multipole expansion.
  | Analytical far-field extrapolation by fixed multipoles:
  | Hartree multipole sum: apparent total charge =  -0.319515E-05
  Summing up the Hartree potential.
  Time summed over all CPUs for potential: real work        0.039 s, elapsed        0.045 s
  | RMS charge density error from multipole expansion :   0.452211E-03

  Integrating Hamiltonian matrix: batch-based integration.
  Time summed over all CPUs for integration: real work        0.078 s, elapsed        0.091 s

  Updating Kohn-Sham eigenvalues, eigenvectors, occupation numbers, and Fermi level.
  Solving generalized eigenproblem
  Solving real symmetric generalised eigenvalue problem by standard ScaLAPACK.
  Using Cholesky factor for transformation
  Using 1-stage real ELPA solver
  Solving real symmetric generalised eigenvalue problem by standard ScaLAPACK.
  Using Cholesky factor for transformation
  Using 1-stage real ELPA solver
  Determining occupation numbers for Kohn-Sham eigenstates.
  | Chemical potential (Fermi level) in eV                 : -.26580536E+01
  | Error in electron count due to remaining E_F inaccuracy: 0.00000000E+00
  | Maximum occupation number of highest empty state:  0.00E+00

  Current spin moment of the entire structure :
  | N = N_up - N_down :    0.00
  | S                 :    0.00
  | J                 :    1.00

  Highest occupied state (VBM) at     -5.32228211 eV
  | Occupation number:      1.00000000
  | Spin channel:        2

  Lowest unoccupied state (CBM) at     0.93236372 eV
  | Occupation number:      0.00000000
  | Spin channel:        1

  Overall HOMO-LUMO gap:      6.25464583 eV.

  Total energy components:
  | Sum of eigenvalues            :          -0.53060742 Ha         -14.43856265 eV
  | XC energy correction          :          -0.39504576 Ha         -10.74974209 eV
  | XC potential correction       :           0.50646316 Ha          13.78156365 eV
  | Free-atom electrostatic energy:          -0.45475550 Ha         -12.37452678 eV
  | Hartree energy correction     :          -0.00728526 Ha          -0.19824188 eV
  | van der Waals energy corr.    :           0.00000000 Ha           0.00000000 eV
  | Entropy correction            :           0.00000000 Ha           0.00000000 eV
  | ---------------------------
  | Total energy                  :          -0.88123079 Ha         -23.97950975 eV
  | Total energy, T -> 0          :          -0.88123079 Ha         -23.97950975 eV  <-- do not rely on this value for anything but (periodic) metals
  | Electronic free energy        :          -0.88123079 Ha         -23.97950975 eV

  Derived energy quantities:
  | Kinetic energy                :           0.87137226 Ha          23.71124562 eV
  | Electrostatic energy          :          -1.35755729 Ha         -36.94101328 eV
  | Energy correction for multipole
  | error in Hartree potential    :          -0.00011783 Ha          -0.00320635 eV
  | Sum of eigenvalues per atom                           :          -7.21928132 eV
  | Total energy (T->0) per atom                          :         -11.98975488 eV  <-- do not rely on this value for anything but (periodic) metals
  | Electronic free energy per atom                       :         -11.98975488 eV

  Self-consistency convergence accuracy:
  | Change of charge/spin density : 0.1100E+00 0.2638E+00
  | Change of sum of eigenvalues  : 0.2708E+01 eV
  | Change of total energy        : 0.2073E+01 eV

  End self-consistency iteration #     4       :  max(cpu_time)    wall_clock(cpu1)
  | Time for this iteration                    :        0.034 s           0.034 s
  | Charge density update                      :        0.007 s           0.007 s
  | Density mixing                             :        0.002 s           0.002 s
  | Hartree multipole update                   :        0.001 s           0.002 s
  | Hartree multipole summation                :        0.007 s           0.007 s
  | Integration                                :        0.012 s           0.011 s
  | Solution of K.-S. eqns.                    :        0.003 s           0.004 s
  | Total energy evaluation                    :        0.000 s           0.001 s
------------------------------------------------------------

------------------------------------------------------------
          Begin self-consistency iteration #    5

  Date     :  20220120, Time     :  152332.430
------------------------------------------------------------
  Evaluating new KS density.
  Integration grid: deviation in total charge (<rho> - N_e) =   1.870663E-07
  | <rho_up-rho_dn> = N_up-N_dn =     -1.8956; <|rho_up-rho_dn|> =      1.8956
  Pulay mixing of updated and previous charge densities.

  Evaluating partitioned Hartree potential by multipole expansion.
  | Analytical far-field extrapolation by fixed multipoles:
  | Hartree multipole sum: apparent total charge =  -0.318713E-05
  Summing up the Hartree potential.
  Time summed over all CPUs for potential: real work        0.038 s, elapsed        0.046 s
  | RMS charge density error from multipole expansion :   0.508613E-03

  Integrating Hamiltonian matrix: batch-based integration.
  Time summed over all CPUs for integration: real work        0.070 s, elapsed        0.075 s

  Updating Kohn-Sham eigenvalues, eigenvectors, occupation numbers, and Fermi level.
  Solving generalized eigenproblem
  Solving real symmetric generalised eigenvalue problem by standard ScaLAPACK.
  Using Cholesky factor for transformation
  Using 1-stage real ELPA solver
  Solving real symmetric generalised eigenvalue problem by standard ScaLAPACK.
  Using Cholesky factor for transformation
  Using 1-stage real ELPA solver
  Determining occupation numbers for Kohn-Sham eigenstates.
  | Chemical potential (Fermi level) in eV                 : -.12149759E+01
  | Error in electron count due to remaining E_F inaccuracy: 0.00000000E+00
  | Maximum occupation number of highest empty state:  0.00E+00

  Current spin moment of the entire structure :
  | N = N_up - N_down :    0.00
  | S                 :    0.00
  | J                 :    1.00

  Highest occupied state (VBM) at     -4.27245217 eV
  | Occupation number:      1.00000000
  | Spin channel:        2

  Lowest unoccupied state (CBM) at     1.99756146 eV
  | Occupation number:      0.00000000
  | Spin channel:        1

  Overall HOMO-LUMO gap:      6.27001363 eV.

  Total energy components:
  | Sum of eigenvalues            :          -0.44133340 Ha         -12.00929292 eV
  | XC energy correction          :          -0.28999258 Ha          -7.89109966 eV
  | XC potential correction       :           0.37179065 Ha          10.11693836 eV
  | Free-atom electrostatic energy:          -0.45475550 Ha         -12.37452678 eV
  | Hartree energy correction     :          -0.01917042 Ha          -0.52165366 eV
  | van der Waals energy corr.    :           0.00000000 Ha           0.00000000 eV
  | Entropy correction            :           0.00000000 Ha           0.00000000 eV
  | ---------------------------
  | Total energy                  :          -0.83346125 Ha         -22.67963465 eV
  | Total energy, T -> 0          :          -0.83346125 Ha         -22.67963465 eV  <-- do not rely on this value for anything but (periodic) metals
  | Electronic free energy        :          -0.83346125 Ha         -22.67963465 eV

  Derived energy quantities:
  | Kinetic energy                :           0.83998862 Ha          22.85725324 eV
  | Electrostatic energy          :          -1.38345729 Ha         -37.64578824 eV
  | Energy correction for multipole
  | error in Hartree potential    :          -0.00013942 Ha          -0.00379390 eV
  | Sum of eigenvalues per atom                           :          -6.00464646 eV
  | Total energy (T->0) per atom                          :         -11.33981733 eV  <-- do not rely on this value for anything but (periodic) metals
  | Electronic free energy per atom                       :         -11.33981733 eV

  Self-consistency convergence accuracy:
  | Change of charge/spin density : 0.7743E-01 0.2789E+00
  | Change of sum of eigenvalues  : 0.2429E+01 eV
  | Change of total energy        : 0.1300E+01 eV

  End self-consistency iteration #     5       :  max(cpu_time)    wall_clock(cpu1)
  | Time for this iteration                    :        0.032 s           0.032 s
  | Charge density update                      :        0.009 s           0.008 s
  | Density mixing                             :        0.002 s           0.002 s
  | Hartree multipole update                   :        0.003 s           0.003 s
  | Hartree multipole summation                :        0.006 s           0.006 s
  | Integration                                :        0.010 s           0.010 s
  | Solution of K.-S. eqns.                    :        0.001 s           0.001 s
  | Total energy evaluation                    :        0.000 s           0.000 s
------------------------------------------------------------

------------------------------------------------------------
          Begin self-consistency iteration #    6

  Date     :  20220120, Time     :  152332.463
------------------------------------------------------------
  Evaluating new KS density.
  Integration grid: deviation in total charge (<rho> - N_e) =   1.934642E-07
  | <rho_up-rho_dn> = N_up-N_dn =     -1.9852; <|rho_up-rho_dn|> =      1.9852
  Pulay mixing of updated and previous charge densities.

  Evaluating partitioned Hartree potential by multipole expansion.
  | Analytical far-field extrapolation by fixed multipoles:
  | Hartree multipole sum: apparent total charge =  -0.327831E-05
  Summing up the Hartree potential.
  Time summed over all CPUs for potential: real work        0.034 s, elapsed        0.035 s
  | RMS charge density error from multipole expansion :   0.573123E-03

  Integrating Hamiltonian matrix: batch-based integration.
  Time summed over all CPUs for integration: real work        0.072 s, elapsed        0.078 s

  Updating Kohn-Sham eigenvalues, eigenvectors, occupation numbers, and Fermi level.
  Solving generalized eigenproblem
  Solving real symmetric generalised eigenvalue problem by standard ScaLAPACK.
  Using Cholesky factor for transformation
  Using 1-stage real ELPA solver
  Solving real symmetric generalised eigenvalue problem by standard ScaLAPACK.
  Using Cholesky factor for transformation
  Using 1-stage real ELPA solver
  Determining occupation numbers for Kohn-Sham eigenstates.
  | Chemical potential (Fermi level) in eV                 : -.25109204E+01
  | Error in electron count due to remaining E_F inaccuracy: 0.00000000E+00
  | Maximum occupation number of highest empty state:  0.00E+00

  Current spin moment of the entire structure :
  | N = N_up - N_down :    0.00
  | S                 :    0.00
  | J                 :    1.00

  Highest occupied state (VBM) at     -5.26917003 eV
  | Occupation number:      1.00000000
  | Spin channel:        2

  Lowest unoccupied state (CBM) at     0.88550129 eV
  | Occupation number:      0.00000000
  | Spin channel:        1

  Overall HOMO-LUMO gap:      6.15467133 eV.

  Total energy components:
  | Sum of eigenvalues            :          -0.52210969 Ha         -14.20732750 eV
  | XC energy correction          :          -0.39925662 Ha         -10.86432552 eV
  | XC potential correction       :           0.51177550 Ha          13.92611998 eV
  | Free-atom electrostatic energy:          -0.45475550 Ha         -12.37452678 eV
  | Hartree energy correction     :          -0.01092489 Ha          -0.29728135 eV
  | van der Waals energy corr.    :           0.00000000 Ha           0.00000000 eV
  | Entropy correction            :           0.00000000 Ha           0.00000000 eV
  | ---------------------------
  | Total energy                  :          -0.87527120 Ha         -23.81734116 eV
  | Total energy, T -> 0          :          -0.87527120 Ha         -23.81734116 eV  <-- do not rely on this value for anything but (periodic) metals
  | Electronic free energy        :          -0.87527120 Ha         -23.81734116 eV

  Derived energy quantities:
  | Kinetic energy                :           0.87912980 Ha          23.92233890 eV
  | Electrostatic energy          :          -1.35514437 Ha         -36.87535455 eV
  | Energy correction for multipole
  | error in Hartree potential    :          -0.00014185 Ha          -0.00386003 eV
  | Sum of eigenvalues per atom                           :          -7.10366375 eV
  | Total energy (T->0) per atom                          :         -11.90867058 eV  <-- do not rely on this value for anything but (periodic) metals
  | Electronic free energy per atom                       :         -11.90867058 eV

  Self-consistency convergence accuracy:
  | Change of charge/spin density : 0.9750E-01 0.2900E+00
  | Change of sum of eigenvalues  : -.2198E+01 eV
  | Change of total energy        : -.1138E+01 eV

  End self-consistency iteration #     6       :  max(cpu_time)    wall_clock(cpu1)
  | Time for this iteration                    :        0.028 s           0.028 s
  | Charge density update                      :        0.007 s           0.007 s
  | Density mixing                             :        0.002 s           0.002 s
  | Hartree multipole update                   :        0.001 s           0.002 s
  | Hartree multipole summation                :        0.005 s           0.004 s
  | Integration                                :        0.010 s           0.010 s
  | Solution of K.-S. eqns.                    :        0.002 s           0.002 s
  | Total energy evaluation                    :        0.000 s           0.000 s
------------------------------------------------------------

------------------------------------------------------------
          Begin self-consistency iteration #    7

  Date     :  20220120, Time     :  152332.493
------------------------------------------------------------
  Evaluating new KS density.
  Integration grid: deviation in total charge (<rho> - N_e) =   1.869524E-07
  | <rho_up-rho_dn> = N_up-N_dn =     -1.9111; <|rho_up-rho_dn|> =      1.9111
  Pulay mixing of updated and previous charge densities.

  Evaluating partitioned Hartree potential by multipole expansion.
  | Analytical far-field extrapolation by fixed multipoles:
  | Hartree multipole sum: apparent total charge =  -0.315498E-05
  Summing up the Hartree potential.
  Time summed over all CPUs for potential: real work        0.036 s, elapsed        0.037 s
  | RMS charge density error from multipole expansion :   0.405190E-03

  Integrating Hamiltonian matrix: batch-based integration.
  Time summed over all CPUs for integration: real work        0.071 s, elapsed        0.076 s

  Updating Kohn-Sham eigenvalues, eigenvectors, occupation numbers, and Fermi level.
  Solving generalized eigenproblem
  Solving real symmetric generalised eigenvalue problem by standard ScaLAPACK.
  Using Cholesky factor for transformation
  Using 1-stage real ELPA solver
  Solving real symmetric generalised eigenvalue problem by standard ScaLAPACK.
  Using Cholesky factor for transformation
  Using 1-stage real ELPA solver
  Determining occupation numbers for Kohn-Sham eigenstates.
  | Chemical potential (Fermi level) in eV                 : -.24158434E+01
  | Error in electron count due to remaining E_F inaccuracy: 0.00000000E+00
  | Maximum occupation number of highest empty state:  0.00E+00

  Current spin moment of the entire structure :
  | N = N_up - N_down :    0.00
  | S                 :    0.00
  | J                 :    1.00

  Highest occupied state (VBM) at     -5.15326642 eV
  | Occupation number:      1.00000000
  | Spin channel:        2

  Lowest unoccupied state (CBM) at     1.64597151 eV
  | Occupation number:      0.00000000
  | Spin channel:        1

  Overall HOMO-LUMO gap:      6.79923794 eV.

  Total energy components:
  | Sum of eigenvalues            :          -0.51790181 Ha         -14.09282525 eV
  | XC energy correction          :          -0.35329931 Ha          -9.61376348 eV
  | XC potential correction       :           0.45372789 Ha          12.34656419 eV
  | Free-atom electrostatic energy:          -0.45475550 Ha         -12.37452678 eV
  | Hartree energy correction     :          -0.01343471 Ha          -0.36557714 eV
  | van der Waals energy corr.    :           0.00000000 Ha           0.00000000 eV
  | Entropy correction            :           0.00000000 Ha           0.00000000 eV
  | ---------------------------
  | Total energy                  :          -0.88566344 Ha         -24.10012846 eV
  | Total energy, T -> 0          :          -0.88566344 Ha         -24.10012846 eV  <-- do not rely on this value for anything but (periodic) metals
  | Electronic free energy        :          -0.88566344 Ha         -24.10012846 eV

  Derived energy quantities:
  | Kinetic energy                :           0.83882189 Ha          22.82550489 eV
  | Electrostatic energy          :          -1.37118601 Ha         -37.31186987 eV
  | Energy correction for multipole
  | error in Hartree potential    :          -0.00011436 Ha          -0.00311199 eV
  | Sum of eigenvalues per atom                           :          -7.04641262 eV
  | Total energy (T->0) per atom                          :         -12.05006423 eV  <-- do not rely on this value for anything but (periodic) metals
  | Electronic free energy per atom                       :         -12.05006423 eV

  Self-consistency convergence accuracy:
  | Change of charge/spin density : 0.7592E-01 0.2820E+00
  | Change of sum of eigenvalues  : 0.1145E+00 eV
  | Change of total energy        : -.2828E+00 eV

  End self-consistency iteration #     7       :  max(cpu_time)    wall_clock(cpu1)
  | Time for this iteration                    :        0.029 s           0.029 s
  | Charge density update                      :        0.008 s           0.007 s
  | Density mixing                             :        0.002 s           0.002 s
  | Hartree multipole update                   :        0.001 s           0.002 s
  | Hartree multipole summation                :        0.005 s           0.005 s
  | Integration                                :        0.010 s           0.009 s
  | Solution of K.-S. eqns.                    :        0.002 s           0.002 s
  | Total energy evaluation                    :        0.000 s           0.000 s
------------------------------------------------------------

------------------------------------------------------------
          Begin self-consistency iteration #    8

  Date     :  20220120, Time     :  152332.523
------------------------------------------------------------
  Evaluating new KS density.
  Integration grid: deviation in total charge (<rho> - N_e) =   1.888293E-07
  | <rho_up-rho_dn> = N_up-N_dn =     -1.9195; <|rho_up-rho_dn|> =      1.9195
  Pulay mixing of updated and previous charge densities.

  Evaluating partitioned Hartree potential by multipole expansion.
  | Analytical far-field extrapolation by fixed multipoles:
  | Hartree multipole sum: apparent total charge =  -0.279299E-05
  Summing up the Hartree potential.
  Time summed over all CPUs for potential: real work        0.035 s, elapsed        0.038 s
  | RMS charge density error from multipole expansion :   0.716799E-03

  Integrating Hamiltonian matrix: batch-based integration.
  Time summed over all CPUs for integration: real work        0.065 s, elapsed        0.068 s

  Updating Kohn-Sham eigenvalues, eigenvectors, occupation numbers, and Fermi level.
  Solving generalized eigenproblem
  Solving real symmetric generalised eigenvalue problem by standard ScaLAPACK.
  Using Cholesky factor for transformation
  Using 1-stage real ELPA solver
  Solving real symmetric generalised eigenvalue problem by standard ScaLAPACK.
  Using Cholesky factor for transformation
  Using 1-stage real ELPA solver
  Determining occupation numbers for Kohn-Sham eigenstates.
  | Chemical potential (Fermi level) in eV                 : 0.60046859E+00
  | Error in electron count due to remaining E_F inaccuracy: 0.00000000E+00
  | Maximum occupation number of highest empty state:  0.00E+00

  Current spin moment of the entire structure :
  | N = N_up - N_down :    0.00
  | S                 :    0.00
  | J                 :    1.00

  Highest occupied state (VBM) at     -3.59307759 eV
  | Occupation number:      1.00000000
  | Spin channel:        2

  Lowest unoccupied state (CBM) at     1.59723742 eV
  | Occupation number:      0.00000000
  | Spin channel:        1

  Overall HOMO-LUMO gap:      5.19031502 eV.

  Total energy components:
  | Sum of eigenvalues            :          -0.34841845 Ha          -9.48094854 eV
  | XC energy correction          :          -0.26648194 Ha          -7.25134260 eV
  | XC potential correction       :           0.34788663 Ha           9.46647692 eV
  | Free-atom electrostatic energy:          -0.45475550 Ha         -12.37452678 eV
  | Hartree energy correction     :          -0.03441828 Ha          -0.93656894 eV
  | van der Waals energy corr.    :           0.00000000 Ha           0.00000000 eV
  | Entropy correction            :           0.00000000 Ha           0.00000000 eV
  | ---------------------------
  | Total energy                  :          -0.75618754 Ha         -20.57690995 eV
  | Total energy, T -> 0          :          -0.75618754 Ha         -20.57690995 eV  <-- do not rely on this value for anything but (periodic) metals
  | Electronic free energy        :          -0.75618754 Ha         -20.57690995 eV

  Derived energy quantities:
  | Kinetic energy                :           0.99488336 Ha          27.07215374 eV
  | Electrostatic energy          :          -1.48458896 Ha         -40.39772109 eV
  | Energy correction for multipole
  | error in Hartree potential    :          -0.00016913 Ha          -0.00460225 eV
  | Sum of eigenvalues per atom                           :          -4.74047427 eV
  | Total energy (T->0) per atom                          :         -10.28845497 eV  <-- do not rely on this value for anything but (periodic) metals
  | Electronic free energy per atom                       :         -10.28845497 eV

  Self-consistency convergence accuracy:
  | Change of charge/spin density : 0.9668E-01 0.2803E+00
  | Change of sum of eigenvalues  : 0.4612E+01 eV
  | Change of total energy        : 0.3523E+01 eV

  End self-consistency iteration #     8       :  max(cpu_time)    wall_clock(cpu1)
  | Time for this iteration                    :        0.027 s           0.027 s
  | Charge density update                      :        0.007 s           0.007 s
  | Density mixing                             :        0.002 s           0.002 s
  | Hartree multipole update                   :        0.001 s           0.001 s
  | Hartree multipole summation                :        0.005 s           0.006 s
  | Integration                                :        0.009 s           0.008 s
  | Solution of K.-S. eqns.                    :        0.001 s           0.002 s
  | Total energy evaluation                    :        0.000 s           0.001 s
------------------------------------------------------------

------------------------------------------------------------
          Begin self-consistency iteration #    9

  Date     :  20220120, Time     :  152332.552
------------------------------------------------------------
  Evaluating new KS density.
  Integration grid: deviation in total charge (<rho> - N_e) =   2.110159E-07
  | <rho_up-rho_dn> = N_up-N_dn =     -2.1534; <|rho_up-rho_dn|> =      2.1534
  Pulay mixing of updated and previous charge densities.

  Evaluating partitioned Hartree potential by multipole expansion.
  | Analytical far-field extrapolation by fixed multipoles:
  | Hartree multipole sum: apparent total charge =  -0.434883E-05
  Summing up the Hartree potential.
  Time summed over all CPUs for potential: real work        0.036 s, elapsed        0.046 s
  | RMS charge density error from multipole expansion :   0.115293E-02

  Integrating Hamiltonian matrix: batch-based integration.
  Time summed over all CPUs for integration: real work        0.069 s, elapsed        0.085 s

  Updating Kohn-Sham eigenvalues, eigenvectors, occupation numbers, and Fermi level.
  Solving generalized eigenproblem
  Solving real symmetric generalised eigenvalue problem by standard ScaLAPACK.
  Using Cholesky factor for transformation
  Using 1-stage real ELPA solver
  Solving real symmetric generalised eigenvalue problem by standard ScaLAPACK.
  Using Cholesky factor for transformation
  Using 1-stage real ELPA solver
  Determining occupation numbers for Kohn-Sham eigenstates.
  | Chemical potential (Fermi level) in eV                 : -.32157998E+01
  | Error in electron count due to remaining E_F inaccuracy: 0.00000000E+00
  | Maximum occupation number of highest empty state:  0.00E+00

  Current spin moment of the entire structure :
  | N = N_up - N_down :    0.00
  | S                 :    0.00
  | J                 :    1.00

  Highest occupied state (VBM) at     -7.00089410 eV
  | Occupation number:      1.00000000
  | Spin channel:        2

  Lowest unoccupied state (CBM) at    -0.03430147 eV
  | Occupation number:      0.00000000
  | Spin channel:        1

  Overall HOMO-LUMO gap:      6.96659263 eV.

  Total energy components:
  | Sum of eigenvalues            :          -0.60061617 Ha         -16.34359742 eV
  | XC energy correction          :          -0.50410934 Ha         -13.71751299 eV
  | XC potential correction       :           0.64805023 Ha          17.63434389 eV
  | Free-atom electrostatic energy:          -0.45475550 Ha         -12.37452678 eV
  | Hartree energy correction     :          -0.00922961 Ha          -0.25115035 eV
  | van der Waals energy corr.    :           0.00000000 Ha           0.00000000 eV
  | Entropy correction            :           0.00000000 Ha           0.00000000 eV
  | ---------------------------
  | Total energy                  :          -0.92066038 Ha         -25.05244366 eV
  | Total energy, T -> 0          :          -0.92066038 Ha         -25.05244366 eV  <-- do not rely on this value for anything but (periodic) metals
  | Electronic free energy        :          -0.92066038 Ha         -25.05244366 eV

  Derived energy quantities:
  | Kinetic energy                :           0.71115661 Ha          19.35155603 eV
  | Electrostatic energy          :          -1.12770766 Ha         -30.68648669 eV
  | Energy correction for multipole
  | error in Hartree potential    :          -0.00019594 Ha          -0.00533178 eV
  | Sum of eigenvalues per atom                           :          -8.17179871 eV
  | Total energy (T->0) per atom                          :         -12.52622183 eV  <-- do not rely on this value for anything but (periodic) metals
  | Electronic free energy per atom                       :         -12.52622183 eV

  Self-consistency convergence accuracy:
  | Change of charge/spin density : 0.9152E-01 0.2936E+00
  | Change of sum of eigenvalues  : -.6863E+01 eV
  | Change of total energy        : -.4476E+01 eV

  End self-consistency iteration #     9       :  max(cpu_time)    wall_clock(cpu1)
  | Time for this iteration                    :        0.032 s           0.032 s
  | Charge density update                      :        0.008 s           0.007 s
  | Density mixing                             :        0.003 s           0.003 s
  | Hartree multipole update                   :        0.001 s           0.001 s
  | Hartree multipole summation                :        0.006 s           0.007 s
  | Integration                                :        0.011 s           0.011 s
  | Solution of K.-S. eqns.                    :        0.002 s           0.002 s
  | Total energy evaluation                    :        0.000 s           0.001 s
------------------------------------------------------------

------------------------------------------------------------
          Begin self-consistency iteration #   10

  Date     :  20220120, Time     :  152332.588
------------------------------------------------------------
  Evaluating new KS density.
  Integration grid: deviation in total charge (<rho> - N_e) =   1.586140E-07
  | <rho_up-rho_dn> = N_up-N_dn =     -1.7203; <|rho_up-rho_dn|> =      1.7203
  Pulay mixing of updated and previous charge densities.

  Evaluating partitioned Hartree potential by multipole expansion.
  | Analytical far-field extrapolation by fixed multipoles:
  | Hartree multipole sum: apparent total charge =  -0.641989E-05
  Summing up the Hartree potential.
  Time summed over all CPUs for potential: real work        0.035 s, elapsed        0.045 s
  | RMS charge density error from multipole expansion :   0.213067E-02

  Integrating Hamiltonian matrix: batch-based integration.
  Time summed over all CPUs for integration: real work        0.070 s, elapsed        0.085 s

  Updating Kohn-Sham eigenvalues, eigenvectors, occupation numbers, and Fermi level.
  Solving generalized eigenproblem
  Solving real symmetric generalised eigenvalue problem by standard ScaLAPACK.
  Using Cholesky factor for transformation
  Using 1-stage real ELPA solver
  Solving real symmetric generalised eigenvalue problem by standard ScaLAPACK.
  Using Cholesky factor for transformation
  Using 1-stage real ELPA solver
  Determining occupation numbers for Kohn-Sham eigenstates.
  | Chemical potential (Fermi level) in eV                 : -.11322630E+02
  | Error in electron count due to remaining E_F inaccuracy: 0.00000000E+00
  | Maximum occupation number of highest empty state:  0.00E+00

  Current spin moment of the entire structure :
  | N = N_up - N_down :    0.00
  | S                 :    0.00
  | J                 :    1.00

  Highest occupied state (VBM) at    -13.12504238 eV
  | Occupation number:      1.00000000
  | Spin channel:        2

  Lowest unoccupied state (CBM) at    -2.61698190 eV
  | Occupation number:      0.00000000
  | Spin channel:        1

  Overall HOMO-LUMO gap:     10.50806048 eV.

  Total energy components:
  | Sum of eigenvalues            :          -0.97923157 Ha         -26.64624676 eV
  | XC energy correction          :          -0.62402940 Ha         -16.98070383 eV
  | XC potential correction       :           0.80175793 Ha          21.81694329 eV
  | Free-atom electrostatic energy:          -0.45475550 Ha         -12.37452678 eV
  | Hartree energy correction     :           0.11507387 Ha           3.13131936 eV
  | van der Waals energy corr.    :           0.00000000 Ha           0.00000000 eV
  | Entropy correction            :           0.00000000 Ha           0.00000000 eV
  | ---------------------------
  | Total energy                  :          -1.14118467 Ha         -31.05321472 eV
  | Total energy, T -> 0          :          -1.14118467 Ha         -31.05321472 eV  <-- do not rely on this value for anything but (periodic) metals
  | Electronic free energy        :          -1.14118467 Ha         -31.05321472 eV

  Derived energy quantities:
  | Kinetic energy                :          -0.49342603 Ha         -13.42680545 eV
  | Electrostatic energy          :          -0.02372924 Ha          -0.64570544 eV
  | Energy correction for multipole
  | error in Hartree potential    :           0.00058840 Ha           0.01601113 eV
  | Sum of eigenvalues per atom                           :         -13.32312338 eV
  | Total energy (T->0) per atom                          :         -15.52660736 eV  <-- do not rely on this value for anything but (periodic) metals
  | Electronic free energy per atom                       :         -15.52660736 eV

  Self-consistency convergence accuracy:
  | Change of charge/spin density : 0.1391E+00 0.2531E+00
  | Change of sum of eigenvalues  : -.1030E+02 eV
  | Change of total energy        : -.6001E+01 eV

  End self-consistency iteration #    10       :  max(cpu_time)    wall_clock(cpu1)
  | Time for this iteration                    :        0.035 s           0.031 s
  | Charge density update                      :        0.011 s           0.007 s
  | Density mixing                             :        0.002 s           0.002 s
  | Hartree multipole update                   :        0.001 s           0.002 s
  | Hartree multipole summation                :        0.006 s           0.006 s
  | Integration                                :        0.011 s           0.011 s
  | Solution of K.-S. eqns.                    :        0.002 s           0.002 s
  | Total energy evaluation                    :        0.000 s           0.001 s
------------------------------------------------------------

------------------------------------------------------------
          Begin self-consistency iteration #   11

  Date     :  20220120, Time     :  152332.622
------------------------------------------------------------
  Evaluating new KS density.
  Integration grid: deviation in total charge (<rho> - N_e) =   1.643801E-08
  | <rho_up-rho_dn> = N_up-N_dn =     -0.0157; <|rho_up-rho_dn|> =      0.6691
  Pulay mixing of updated and previous charge densities.

  Evaluating partitioned Hartree potential by multipole expansion.
  | Analytical far-field extrapolation by fixed multipoles:
  | Hartree multipole sum: apparent total charge =  -0.668682E-05
  Summing up the Hartree potential.
  Time summed over all CPUs for potential: real work        0.033 s, elapsed        0.035 s
  | RMS charge density error from multipole expansion :   0.183930E-02

  Integrating Hamiltonian matrix: batch-based integration.
  Time summed over all CPUs for integration: real work        0.067 s, elapsed        0.070 s

  Updating Kohn-Sham eigenvalues, eigenvectors, occupation numbers, and Fermi level.
  Solving generalized eigenproblem
  Solving real symmetric generalised eigenvalue problem by standard ScaLAPACK.
  Using Cholesky factor for transformation
  Using 1-stage real ELPA solver
  Solving real symmetric generalised eigenvalue problem by standard ScaLAPACK.
  Using Cholesky factor for transformation
  Using 1-stage real ELPA solver
  Determining occupation numbers for Kohn-Sham eigenstates.
  | Chemical potential (Fermi level) in eV                 : -.11169556E+02
  | Error in electron count due to remaining E_F inaccuracy: 0.00000000E+00
  | Maximum occupation number of highest empty state:  0.00E+00

  Current spin moment of the entire structure :
  | N = N_up - N_down :    0.00
  | S                 :    0.00
  | J                 :    1.00

  Highest occupied state (VBM) at    -13.02970444 eV
  | Occupation number:      1.00000000
  | Spin channel:        2

  Lowest unoccupied state (CBM) at    -2.35901214 eV
  | Occupation number:      0.00000000
  | Spin channel:        1

  Overall HOMO-LUMO gap:     10.67069230 eV.

  Total energy components:
  | Sum of eigenvalues            :          -0.97094848 Ha         -26.42085249 eV
  | XC energy correction          :          -0.67535137 Ha         -18.37724590 eV
  | XC potential correction       :           0.86765496 Ha          23.61009261 eV
  | Free-atom electrostatic energy:          -0.45475550 Ha         -12.37452678 eV
  | Hartree energy correction     :           0.07076951 Ha           1.92573638 eV
  | van der Waals energy corr.    :           0.00000000 Ha           0.00000000 eV
  | Entropy correction            :           0.00000000 Ha           0.00000000 eV
  | ---------------------------
  | Total energy                  :          -1.16263089 Ha         -31.63679617 eV
  | Total energy, T -> 0          :          -1.16263089 Ha         -31.63679617 eV  <-- do not rely on this value for anything but (periodic) metals
  | Electronic free energy        :          -1.16263089 Ha         -31.63679617 eV

  Derived energy quantities:
  | Kinetic energy                :          -0.47485770 Ha         -12.92153535 eV
  | Electrostatic energy          :          -0.01242182 Ha          -0.33801493 eV
  | Energy correction for multipole
  | error in Hartree potential    :           0.00042673 Ha           0.01161196 eV
  | Sum of eigenvalues per atom                           :         -13.21042625 eV
  | Total energy (T->0) per atom                          :         -15.81839809 eV  <-- do not rely on this value for anything but (periodic) metals
  | Electronic free energy per atom                       :         -15.81839809 eV

[...]
  | Change of sum of eigenvalues  : 0.1512E-04 eV
  | Change of total energy        : -.4291E-09 eV

  End self-consistency iteration #    28       :  max(cpu_time)    wall_clock(cpu1)
  | Time for this iteration                    :        0.029 s           0.029 s
  | Charge density update                      :        0.007 s           0.006 s
  | Density mixing                             :        0.002 s           0.002 s
  | Hartree multipole update                   :        0.002 s           0.002 s
  | Hartree multipole summation                :        0.005 s           0.005 s
  | Integration                                :        0.010 s           0.010 s
  | Solution of K.-S. eqns.                    :        0.002 s           0.003 s
  | Total energy evaluation                    :        0.000 s           0.001 s
------------------------------------------------------------

------------------------------------------------------------
          Begin self-consistency iteration #   29

  Date     :  20220120, Time     :  152333.181
------------------------------------------------------------
  Evaluating new KS density.
  Integration grid: deviation in total charge (<rho> - N_e) =  -3.675060E-12
  | <rho_up-rho_dn> = N_up-N_dn =      0.0000; <|rho_up-rho_dn|> =      0.0000
  Pulay mixing of updated and previous charge densities.

  Evaluating partitioned Hartree potential by multipole expansion.
  | Analytical far-field extrapolation by fixed multipoles:
  | Hartree multipole sum: apparent total charge =  -0.103066E-06
  Summing up the Hartree potential.
  Time summed over all CPUs for potential: real work        0.036 s, elapsed        0.040 s
  | RMS charge density error from multipole expansion :   0.827384E-03

  Integrating Hamiltonian matrix: batch-based integration.
  Time summed over all CPUs for integration: real work        0.081 s, elapsed        0.085 s

  Updating Kohn-Sham eigenvalues, eigenvectors, occupation numbers, and Fermi level.
  Solving generalized eigenproblem
  Solving real symmetric generalised eigenvalue problem by standard ScaLAPACK.
  Using Cholesky factor for transformation
  Using 1-stage real ELPA solver
  Solving real symmetric generalised eigenvalue problem by standard ScaLAPACK.
  Using Cholesky factor for transformation
  Using 1-stage real ELPA solver
  Determining occupation numbers for Kohn-Sham eigenstates.
  | Chemical potential (Fermi level) in eV                 : -.79901637E+01
  | Error in electron count due to remaining E_F inaccuracy: 0.00000000E+00
  | Maximum occupation number of highest empty state:  0.00E+00

  Current spin moment of the entire structure :
  | N = N_up - N_down :    0.00
  | S                 :    0.00
  | J                 :    1.00

  Highest occupied state (VBM) at     -9.50733039 eV
  | Occupation number:      1.00000000
  | Spin channel:        2

  Lowest unoccupied state (CBM) at    -0.42511111 eV
  | Occupation number:      0.00000000
  | Spin channel:        1

  Overall HOMO-LUMO gap:      9.08221928 eV.

  Total energy components:
  | Sum of eigenvalues            :          -0.69877595 Ha         -19.01466093 eV
  | XC energy correction          :          -0.63315500 Ha         -17.22902426 eV
  | XC potential correction       :           0.81275364 Ha          22.11615177 eV
  | Free-atom electrostatic energy:          -0.45475550 Ha         -12.37452678 eV
  | Hartree energy correction     :          -0.17561387 Ha          -4.77869644 eV
  | van der Waals energy corr.    :           0.00000000 Ha           0.00000000 eV
  | Entropy correction            :           0.00000000 Ha           0.00000000 eV
  | ---------------------------
  | Total energy                  :          -1.14954668 Ha         -31.28075666 eV
  | Total energy, T -> 0          :          -1.14954668 Ha         -31.28075666 eV  <-- do not rely on this value for anything but (periodic) metals
  | Electronic free energy        :          -1.14954668 Ha         -31.28075666 eV

  Derived energy quantities:
  | Kinetic energy                :           0.98202888 Ha          26.72236548 eV
  | Electrostatic energy          :          -1.49842056 Ha         -40.77409787 eV
  | Energy correction for multipole
  | error in Hartree potential    :          -0.00008896 Ha          -0.00242061 eV
  | Sum of eigenvalues per atom                           :          -9.50733047 eV
  | Total energy (T->0) per atom                          :         -15.64037833 eV  <-- do not rely on this value for anything but (periodic) metals
  | Electronic free energy per atom                       :         -15.64037833 eV

  Self-consistency convergence accuracy:
  | Change of charge/spin density : 0.4420E-06 0.5488E-06
  | Change of sum of eigenvalues  : -.2068E-04 eV
  | Change of total energy        : 0.1815E-09 eV

  End self-consistency iteration #    29       :  max(cpu_time)    wall_clock(cpu1)
  | Time for this iteration                    :        0.031 s           0.031 s
  | Charge density update                      :        0.007 s           0.006 s
  | Density mixing                             :        0.002 s           0.002 s
  | Hartree multipole update                   :        0.002 s           0.002 s
  | Hartree multipole summation                :        0.005 s           0.005 s
  | Integration                                :        0.011 s           0.011 s
  | Solution of K.-S. eqns.                    :        0.003 s           0.003 s
  | Total energy evaluation                    :        0.000 s           0.000 s
------------------------------------------------------------

------------------------------------------------------------
          Begin self-consistency iteration #   30

  Date     :  20220120, Time     :  152333.213
------------------------------------------------------------
  Evaluating new KS density.
  Integration grid: deviation in total charge (<rho> - N_e) =  -9.865442E-13
  | <rho_up-rho_dn> = N_up-N_dn =     -0.0000; <|rho_up-rho_dn|> =      0.0000
  Pulay mixing of updated and previous charge densities.

  Evaluating partitioned Hartree potential by multipole expansion.
  | Analytical far-field extrapolation by fixed multipoles:
  | Hartree multipole sum: apparent total charge =  -0.103071E-06
  Summing up the Hartree potential.
  Time summed over all CPUs for potential: real work        0.034 s, elapsed        0.035 s
  | RMS charge density error from multipole expansion :   0.827385E-03

  Integrating Hamiltonian matrix: batch-based integration.
  Time summed over all CPUs for integration: real work        0.080 s, elapsed        0.082 s

  Updating Kohn-Sham eigenvalues, eigenvectors, occupation numbers, and Fermi level.
  Solving generalized eigenproblem
  Solving real symmetric generalised eigenvalue problem by standard ScaLAPACK.
  Using Cholesky factor for transformation
  Using 1-stage real ELPA solver
  Solving real symmetric generalised eigenvalue problem by standard ScaLAPACK.
  Using Cholesky factor for transformation
  Using 1-stage real ELPA solver
  Determining occupation numbers for Kohn-Sham eigenstates.
  | Chemical potential (Fermi level) in eV                 : -.79902226E+01
  | Error in electron count due to remaining E_F inaccuracy: 0.00000000E+00
  | Maximum occupation number of highest empty state:  0.00E+00

  Current spin moment of the entire structure :
  | N = N_up - N_down :    0.00
  | S                 :    0.00
  | J                 :    1.00

  Highest occupied state (VBM) at     -9.50733128 eV
  | Occupation number:      1.00000000
  | Spin channel:        2

  Lowest unoccupied state (CBM) at    -0.42511179 eV
  | Occupation number:      0.00000000
  | Spin channel:        1

  Overall HOMO-LUMO gap:      9.08221948 eV.

  Total energy components:
  | Sum of eigenvalues            :          -0.69877601 Ha         -19.01466260 eV
  | XC energy correction          :          -0.63315498 Ha         -17.22902355 eV
  | XC potential correction       :           0.81275360 Ha          22.11615081 eV
  | Free-atom electrostatic energy:          -0.45475550 Ha         -12.37452678 eV
  | Hartree energy correction     :          -0.17561380 Ha          -4.77869453 eV
  | van der Waals energy corr.    :           0.00000000 Ha           0.00000000 eV
  | Entropy correction            :           0.00000000 Ha           0.00000000 eV
  | ---------------------------
  | Total energy                  :          -1.14954668 Ha         -31.28075666 eV
  | Total energy, T -> 0          :          -1.14954668 Ha         -31.28075666 eV  <-- do not rely on this value for anything but (periodic) metals
  | Electronic free energy        :          -1.14954668 Ha         -31.28075666 eV

  Derived energy quantities:
  | Kinetic energy                :           0.98202886 Ha          26.72236479 eV
  | Electrostatic energy          :          -1.49842056 Ha         -40.77409790 eV
  | Energy correction for multipole
  | error in Hartree potential    :          -0.00008896 Ha          -0.00242060 eV
  | Sum of eigenvalues per atom                           :          -9.50733130 eV
  | Total energy (T->0) per atom                          :         -15.64037833 eV  <-- do not rely on this value for anything but (periodic) metals
  | Electronic free energy per atom                       :         -15.64037833 eV

  Self-consistency convergence accuracy:
  | Change of charge/spin density : 0.6007E-07 0.2413E-07
  | Change of sum of eigenvalues  : -.1667E-05 eV
  | Change of total energy        : -.4658E-11 eV

  Writing Kohn-Sham eigenvalues.

  Spin-up eigenvalues:

  State    Occupation    Eigenvalue [Ha]    Eigenvalue [eV]
      1       1.00000          -0.349388           -9.50733
      2       0.00000          -0.015623           -0.42511
      3       0.00000           0.047068            1.28077
      4       0.00000           0.131736            3.58473
      5       0.00000           0.305623            8.31643
      6       0.00000           0.305623            8.31643
      7       0.00000           0.382227           10.40093
      8       0.00000           0.496142           13.50072
      9       0.00000           0.675999           18.39487
     10       0.00000           0.709899           19.31734
     11       0.00000           0.709899           19.31734

  Spin-down eigenvalues:

  State    Occupation    Eigenvalue [Ha]    Eigenvalue [eV]
      1       1.00000          -0.349388           -9.50733
      2       0.00000          -0.015623           -0.42511
      3       0.00000           0.047068            1.28077
      4       0.00000           0.131736            3.58473
      5       0.00000           0.305623            8.31643
      6       0.00000           0.305623            8.31643
      7       0.00000           0.382227           10.40093
      8       0.00000           0.496142           13.50072
      9       0.00000           0.675999           18.39487
     10       0.00000           0.709899           19.31734
     11       0.00000           0.709899           19.31734

  Current spin moment of the entire structure :
  | N = N_up - N_down :    0.00
  | S                 :    0.00
  | J                 :    1.00

  Highest occupied state (VBM) at     -9.50733128 eV
  | Occupation number:      1.00000000
  | Spin channel:        2

  Lowest unoccupied state (CBM) at    -0.42511179 eV
  | Occupation number:      0.00000000
  | Spin channel:        1

  Overall HOMO-LUMO gap:      9.08221948 eV.

  Self-consistency cycle converged.

  End self-consistency iteration #    30       :  max(cpu_time)    wall_clock(cpu1)
  | Time for this iteration                    :        0.030 s           0.032 s
  | Charge density update                      :        0.007 s           0.007 s
  | Density mixing                             :        0.003 s           0.003 s
  | Hartree multipole update                   :        0.002 s           0.001 s
  | Hartree multipole summation                :        0.005 s           0.005 s
  | Integration                                :        0.010 s           0.011 s
  | Solution of K.-S. eqns.                    :        0.002 s           0.002 s
  | Total energy evaluation                    :        0.000 s           0.000 s
------------------------------------------------------------
  Obtaining max. number of non-zero basis functions in each batch .
  Evaluating KS electron density on previously omitted grid points.
  Evaluating non-empirical van der Waals correction (Tkatchenko/Scheffler 2009).
  Performing Hirshfeld analysis of fragment charges and moments.
  ----------------------------------------------------------------------
  | Atom     1: H
  |   Hirshfeld charge        :     -0.00000055
  |   Free atom volume        :     10.31539447
  |   Hirshfeld volume        :      6.34741603
  |   Hirshfeld spin moment   :      0.00000008
  |   Hirshfeld dipole vector :      0.00000000      -0.00000000      -0.09064976
  |   Hirshfeld dipole moment :      0.09064976
  |   Hirshfeld second moments:      0.09035200       0.00000000      -0.00000000
  |                                  0.00000000       0.09035200      -0.00000000
  |                                 -0.00000000      -0.00000000       0.09327217
  ----------------------------------------------------------------------
  | Atom     2: H
  |   Hirshfeld charge        :     -0.00000055
  |   Free atom volume        :     10.31539447
  |   Hirshfeld volume        :      6.34741603
  |   Hirshfeld spin moment   :      0.00000008
  |   Hirshfeld dipole vector :      0.00000000       0.00000000       0.09064976
  |   Hirshfeld dipole moment :      0.09064976
  |   Hirshfeld second moments:      0.09035200      -0.00000000      -0.00000000
  |                                 -0.00000000       0.09035200       0.00000000
  |                                 -0.00000000       0.00000000       0.09327217
  ----------------------------------------------------------------------


  Total energy components:
  | Sum of eigenvalues            :          -0.69877601 Ha         -19.01466260 eV
  | XC energy correction          :          -0.63315498 Ha         -17.22902355 eV
  | XC potential correction       :           0.81275360 Ha          22.11615081 eV
  | Free-atom electrostatic energy:          -0.45475550 Ha         -12.37452678 eV
  | Hartree energy correction     :          -0.17561380 Ha          -4.77869453 eV
  | van der Waals energy corr.    :          -0.00000021 Ha          -0.00000577 eV
  | Entropy correction            :           0.00000000 Ha           0.00000000 eV
  | ---------------------------
  | Total energy                  :          -1.14954689 Ha         -31.28076242 eV
  | Total energy, T -> 0          :          -1.14954689 Ha         -31.28076242 eV  <-- do not rely on this value for anything but (periodic) metals
  | Electronic free energy        :          -1.14954689 Ha         -31.28076242 eV

  Derived energy quantities:
  | Kinetic energy                :           0.98202886 Ha          26.72236479 eV
  | Electrostatic energy          :          -1.49842056 Ha         -40.77409790 eV
  | Energy correction for multipole
  | error in Hartree potential    :          -0.00008896 Ha          -0.00242060 eV
  | Sum of eigenvalues per atom                           :          -9.50733130 eV
  | Total energy (T->0) per atom                          :         -15.64038121 eV  <-- do not rely on this value for anything but (periodic) metals
  | Electronic free energy per atom                       :         -15.64038121 eV
  Timings for VdW correction (Tkatchenko-Scheffler 2009 or later):
  | CPU time:        0.003 s, Wall clock time:        0.002 s.

  Energy and forces in a compact form:
  | Total energy uncorrected      :         -0.312807624225422E+02 eV
  | Total energy corrected        :         -0.312807624225422E+02 eV  <-- do not rely on this value for anything but (periodic) metals
  | Electronic free energy        :         -0.312807624225422E+02 eV

  ------------------------------------ 
  Start decomposition of the XC Energy 
  ------------------------------------ 
  Hartree-Fock part   :          0.000000000 Ha              0.000000000 eV
  ------------------------------------ 
  X Energy            :         -0.591469294 Ha            -16.094698391 eV
  C Energy GGA        :         -0.041685683 Ha             -1.134325162 eV
  Total XC Energy     :         -0.633154978 Ha            -17.229023553 eV
  LDA X and C from self-consistent density 
  X Energy LDA        :         -0.515789355 Ha            -14.035342466 eV
  C Energy LDA        :         -0.090855943 Ha             -2.472315998 eV
  ------------------------------------ 
  End decomposition of the XC Energy 
  ------------------------------------ 

------------------------------------------------------------------------------
  Final output of selected total energy values:

  The following output summarizes some interesting total energy values
  at the end of a run (AFTER all relaxation, molecular dynamics, etc.).

  | Total energy of the DFT / Hartree-Fock s.c.f. calculation      :            -31.280762423 eV
  | Final zero-broadening corrected energy (caution - metals only) :            -31.280762423 eV
  | For reference only, the value of 1 Hartree used in FHI-aims is :             27.211384500 eV

  Before relying on these values, please be sure to understand exactly which
  total energy value is referred to by a given number. Different objects may
  all carry the same name 'total energy'. Definitions:

  Total energy of the DFT / Hartree-Fock s.c.f. calculation:
  | Note that this energy does not include ANY quantities calculated after the
  | s.c.f. cycle, in particular not ANY RPA, MP2, etc. many-body perturbation terms.

  Final zero-broadening corrected energy:
  | For metallic systems only, a broadening of the occupation numbers at the Fermi
  | level can be extrapolated back to zero broadening by an electron-gas inspired
  | formula. For all systems that are not real metals, this value can be
  | meaningless and should be avoided.

------------------------------------------------------------------------------

------------------------------------------------------------
          Leaving FHI-aims.
          Date     :  20220120, Time     :  152333.257

          Computational steps:
          | Number of self-consistency cycles          :           30

          Detailed time accounting                     :  max(cpu_time)    wall_clock(cpu1)
          | Total time                                 :        1.071 s           1.163 s
          | Preparation time                           :        0.080 s           0.081 s
          | Grid partitioning                          :        0.007 s           0.007 s
          | Preloading free-atom quantities on grid    :        0.004 s           0.004 s
          | Free-atom superposition energy             :        0.003 s           0.003 s
          | Total time for integrations                :        0.326 s           0.325 s
          | Total time for solution of K.-S. equations :        0.061 s           0.067 s
          | Total time for density update              :        0.221 s           0.197 s
          | Total time for mixing                      :        0.058 s           0.060 s
          | Total time for Hartree multipole update    :        0.044 s           0.052 s
          | Total time for Hartree multipole sum       :        0.153 s           0.154 s
          | Total time for total energy evaluation     :        0.006 s           0.018 s
          | Total time for scaled ZORA corrections     :        0.000 s           0.000 s
          | Total time for vdW correction              :        0.003 s           0.002 s

          Have a nice day.
------------------------------------------------------------
