  MPI-parallelism will be employed.
------------------------------------------------------------
          Invoking FHI-aims ...
          Version 052014
          Git rev. (modified): 096c982 Merge branch master of fhiaims:/pub/localo[...]
          Compiled on 2016/12/16 at 15:22:01 on host login02.hpc.iitd.ac.in.

          When using FHI-aims, please cite the following reference:

          Volker Blum, Ralf Gehrke, Felix Hanke, Paula Havu,
          Ville Havu, Xinguo Ren, Karsten Reuter, and Matthias Scheffler,
          'Ab Initio Molecular Simulations with Numeric Atom-Centered Orbitals: FHI-aims',
          Computer Physics Communications 180, 2175-2196 (2009)

          For any questions about FHI-aims, please visit the aimsclub website
          with its forums and wiki. Contributions to both the forums and the
          wiki are warmly encouraged - they are for you, and everyone is welcome there.

------------------------------------------------------------

  Date     :  20220120, Time     :  153123.962
  Time zero on CPU 1             :   0.126890000000000E-01  s.
  Internal wall clock time zero  :           411924683.962  s.

  Using        8 parallel tasks.
  Task        0 on host csky021 reporting.
  Task        1 on host csky021 reporting.
  Task        2 on host csky021 reporting.
  Task        3 on host csky021 reporting.
  Task        4 on host csky021 reporting.
  Task        5 on host csky021 reporting.
  Task        6 on host csky021 reporting.
  Task        7 on host csky021 reporting.

  Performing system and environment tests:
  | Environment variable OMP_NUM_THREADS correctly set to 1.
  | Stacksize not measured: no C compiler
  | Checking for scalapack...
  | Testing pdtran()...
  | All pdtran() tests passed.

  Obtaining array dimensions for all initial allocations:
  
  -----------------------------------------------------------------------
  Parsing control.in (first pass over file, find array dimensions only).
  The contents of control.in will be repeated verbatim below
  unless switched off by setting 'verbatim_writeout .false.' .
  in the first line of control.in .
  -----------------------------------------------------------------------
  
    xc               pbe
    spin             collinear
    default_initial_moment hund
    relativistic     atomic_zora scalar 1e-9
    occupation_type  gaussian 0.001
    charge        0
    vdw_correction_hirshfeld
    KS_method        scalapack_fast
    mixer            pulay
    charge_mix_param  0.4
    spin_mix_param    0.6
    sc_accuracy_rho  1E-4
    sc_accuracy_eev  1E-5
    sc_accuracy_etot 1E-5
    sc_iter_limit    100
    empty_states     10
  ################################################################################
  #
  #  FHI-aims code project
  # Volker Blum, Fritz Haber Institute Berlin, 2009
  #
  #  Suggested "tight" defaults for H atom (to be pasted into control.in file)
  #
  ################################################################################
    species        H
  #     global species definitions
      nucleus             1
      mass                1.00794
  #
      l_hartree           6
  #
      cut_pot             4.0  2.0  1.0
      basis_dep_cutoff    1e-4
  #
      radial_base         24 7.0
      radial_multiplier   2
      angular_grids       specified
        division   0.1930   50
        division   0.3175  110
        division   0.4293  194
        division   0.5066  302
        division   0.5626  434
  #      division   0.5922  590
  #      division   0.6227  974
  #      division   0.6868 1202
  #      outer_grid  770
        outer_grid  434
  ################################################################################
  #
  #  Definition of "minimal" basis
  #
  ################################################################################
  #     valence basis states
      valence      1  s   1.
  #     ion occupancy
      ion_occ      1  s   0.5
  ################################################################################
  #
  #  Suggested additional basis functions. For production calculations,
  #  uncomment them one after another (the most important basis functions are
  #  listed first).
  #
  #  Basis constructed for dimers: 0.5 A, 0.7 A, 1.0 A, 1.5 A, 2.5 A
  #
  ################################################################################
  #  "First tier" - improvements: -1014.90 meV to -62.69 meV
       hydro 2 s 2.1
       hydro 2 p 3.5
  #  "Second tier" - improvements: -12.89 meV to -1.83 meV
       hydro 1 s 0.85
       hydro 2 p 3.7
       hydro 2 s 1.2
       hydro 3 d 7
  #  "Third tier" - improvements: -0.25 meV to -0.12 meV
  #     hydro 4 f 11.2
  #     hydro 3 p 4.8
  #     hydro 4 d 9
  #     hydro 3 s 3.2
  ################################################################################
  #
  # For methods that use the localized form of the "resolution of identity" for
  # the two-electron Coulomb operator (RI_method LVL), particularly Hartree-Fock and
  # hybrid density functional calculations, the highest accuracy can be obtained by
  # uncommenting the line beginning with "for_aux"  below, thus adding an extra g radial
  # function to the construction of the product basis set for the expansion.
  # See Ref. New J. Phys. 17, 093020 (2015) for more information, particularly Figs. 1 and 6.
  #
  ################################################################################
  #
  # for_aux hydro 5 g 6.0
  
  -----------------------------------------------------------------------
  Completed first pass over input file control.in .
  -----------------------------------------------------------------------
  
  
  -----------------------------------------------------------------------
  Parsing geometry.in (first pass over file, find array dimensions only).
  The contents of geometry.in will be repeated verbatim below
  unless switched off by setting 'verbatim_writeout .false.' .
  in the first line of geometry.in .
  -----------------------------------------------------------------------
  
  atom 0 0 0 H
  atom 0 0 0.88 H
  
  -----------------------------------------------------------------------
  Completed first pass over input file geometry.in .
  -----------------------------------------------------------------------
  

  Basic array size parameters:
  | Number of species                 :        1
  | Number of atoms                   :        2
  | Max. basis fn. angular momentum   :        2
  | Max. atomic/ionic basis occupied n:        1
  | Max. number of basis fn. types    :        2
  | Max. radial fns per species/type  :        6
  | Max. logarithmic grid size        :     1131
  | Max. radial integration grid size :       49
  | Max. angular integration grid size:      434
  | Max. angular grid division number :        8
  | Radial grid for Hartree potential :     1131
  | Number of spin channels           :        2

------------------------------------------------------------
          Reading file control.in.
------------------------------------------------------------
  XC: Using PBE gradient-corrected functionals.
  Spin treatment: Spin density functional theory - collinear spins.
  Initial spin moment per atom set according to Hund's rules.
  Scalar relativistic treatment of kinetic energy: on-site free-atom approximation to ZORA.
  Occupation type: Gaussian broadening, width =   0.100000E-02 eV.
  Charge =   0.000000E+00: Neutral system requested explicitly.
  Using non-empirical van der Waals correction (Hirshfeld partitioning):
  Kohn-Sham eigenvalues and eigenfunctions calculated by the ELPA eigensolver library.
  Using pulay charge density mixing.
  Charge density mixing - mixing parameter:     0.4000
  Spin density mixing - mixing parameter:     0.6000
  Convergence accuracy of self-consistent charge density: 0.1000E-03
  Convergence accuracy of sum of eigenvalues: 0.1000E-04
  Convergence accuracy of total energy: 0.1000E-04
  Maximum number of s.-c. iterations  :   100
  Number of empty states per atom:       10
 
  Reading configuration options for species H                   .
  | Found nuclear charge :   1.0000
  | Found atomic mass :    1.00794000000000      amu
  | Found l_max for Hartree potential  :   6
  | Found cutoff potl. onset [A], width [A], scale factor :    4.00000    2.00000    1.00000
  | Threshold for basis-dependent cutoff potential is   0.100000E-03
  | Found data for basic radial integration grid :    24 points, outermost radius =    7.000 A
  | Found multiplier for basic radial grid :   2
  | Found angular grid specification: user-specified.
  | Specified grid contains     6 separate shells.
  | Check grid settings after all constraints further below.
  | Found free-atom valence shell :  1 s   1.000
  | No ionic wave fns used. Skipping ion_occ.
  | Found hydrogenic basis function :  2 s   2.100
  | Found hydrogenic basis function :  2 p   3.500
  | Found hydrogenic basis function :  1 s   0.850
  | Found hydrogenic basis function :  2 p   3.700
  | Found hydrogenic basis function :  2 s   1.200
  | Found hydrogenic basis function :  3 d   7.000
  Species H                   : Missing cutoff potential type.
  Defaulting to exp(1/x)/(1-x)^2 type cutoff potential.
  Species H : No 'logarithmic' tag. Using default grid for free atom:
  | Default logarithmic grid data [bohr] : 0.1000E-03 0.1000E+03 0.1012E+01
  Species H : On-site basis accuracy parameter (for Gram-Schmidt orthonormalisation) not specified.
  Using default value basis_acc =  0.1000000E-03.
  Species H                   : Using default innermost maximum threshold i_radial=  2 for radial functions.
  Species H                   : Default cutoff onset for free atom density etc. : 0.40000000E+01 AA.
  Species H                   : Basic radial grid will be enhanced according to radial_multiplier =   2, to contain    49 grid points.
 
  Finished reading input file 'control.in'. Consistency checks are next.
 
  Target number of points in a grid batch is not set. Defaulting to  100
  Method for grid partitioning is not set. Defaulting to parallel hash+maxmin partitioning.
  Batch size limit is not set. Defaulting to    200
  By default, will store active basis functions for each batch.
  If in need of memory, prune_basis_once .false. can be used to disable this option.
  communication_type for Hartree potential was not specified.
  Defaulting to calc_hartree .
  Pulay mixer: Number of relevant iterations not set.
  Defaulting to    8 iterations.
  Pulay mixer: Number of initial linear mixing iterations not set.
  Defaulting to    0 iterations.
  Work space size for distributed Hartree potential not set.
  Defaulting to   0.200000E+03 MB.
  Algorithm-dependent basis array size parameters:
  | n_max_pulay                         :        8
  Calculation of forces was not defined in control.in. No forces will be calculated.
  Geometry relaxation not requested: no relaxation will be performed.
  No accuracy limit for integral partition fn. given. Defaulting to 0.1000E-14.
  No threshold value for u(r) in integrations given. Defaulting to 0.1000E-05.
  No accuracy for occupation numbers given. Defaulting to 0.1000E-07.
  No threshold value for occupation numbers given. Defaulting to 0.0000E+00.
  No accuracy for fermi level given. Defaulting to 0.1000E-19.
  Maximum # of iterations to find E_F not set. Defaulting to  200.
  Will not use alltoall communication since running on < 1024 CPUs.
  Threshold for basis singularities not set.
  Default threshold for basis singularities: 0.1000E-04
  partition_type (choice of integration weights) for integrals was not specified.
  | Using a version of the partition function of Stratmann and coworkers ('stratmann_smoother').
  | At each grid point, the set of atoms used to build the partition table is smoothly restricted to
  | only those atoms whose free-atom density would be non-zero at that grid point.
  Partitioning for Hartree potential was not defined. Using partition_type for integrals.
  | Adjusted default value of keyword multip_moments_threshold to:       0.10000000E-11
  | This value may affect high angular momentum components of the Hartree potential in periodic systems.
  No q(lm)/r^(l+1) cutoff set for long-range Hartree potential.
  | Using default value of  0.100000E-09 .
  | Verify using the multipole_threshold keyword.
  Defaulting to new monopole extrapolation.
  Density update method: automatic selection selected.
------------------------------------------------------------


------------------------------------------------------------
          Reading geometry description geometry.in.
------------------------------------------------------------
  Input structure read successfully.
  The structure contains        2 atoms,  and a total of          2.000 electrons.

  Input geometry:
  | No unit cell requested.
  | Atomic structure:
  |       Atom                x [A]            y [A]            z [A]
  |    1: Species H              0.000000         0.000000         0.000000
  |    2: Species H              0.000000         0.000000         0.880000
  |

  | The smallest distance between any two atoms is         0.88000000 AA.
  |
  | The first atom of this pair is atom number                      1 .
  | The second atom of this pair is atom number                     2 .

  Initial moments and charges:
  |  Atom   Moment         Charge        Species
  |     1  (Hund's rule)   0.000000E+00   H
  |     2  (Hund's rule)   0.000000E+00   H

  Structure-dependent array size parameters: 
  | Number of distinct atom types in initial rho :        1
  | Maximum number of distinct radial functions  :        7
  | Maximum number of basis functions            :       30
  | Number of Kohn-Sham states (occupied + empty):       11
------------------------------------------------------------

------------------------------------------------------------
          Preparing all fixed parts of the calculation.
------------------------------------------------------------
  Determining machine precision:
    2.225073858507201E-308
  Setting up grids for atomic and cluster calculations.

  Creating wave function, potential, and density for free atoms.

  Species: H

  List of occupied orbitals and eigenvalues:
    n    l              occ      energy [Ha]    energy [eV]
    1    0           1.0000        -0.238386        -6.4868

  Spin-polarized or charged system:
  Charge density initialized according to selected moments and charges.

  Creating spin-polarized density from free atoms.

  Species: H
  Charge:   0.000000
  applying Hund's rules ...

  List of occupied orbitals and eigenvalues:
    n    l      energy [Ha]    energy [eV]    occupation
  Spin-up
    1    0        -0.278991        -7.5917     1.00000000
  Spin-down
    1    0         0.090850         2.4721     0.00000000

  Creating fixed part of basis set: Ionic, confined, hydrogenic.
 
  H                    hydrogenic:
 
  List of hydrogenic basis orbitals: 
    n    l      effective z      eigenvalue [eV]  inner max. [A]     outer max. [A]     outer radius [A]   
    2    0         2.100000       -14.9965           0.193243           1.317208           5.373006
    2    1         3.500000       -41.6672           0.602369           0.602369           4.056063
    1    0         0.850000        -9.8292           0.624871           0.624871           5.373006
    2    1         3.700000       -46.5653           0.573622           0.573622           3.910002
    2    0         1.200000        -4.5995           0.334980           2.228188           5.505995
    3    2         7.000000       -74.0753           0.680699           0.680699           3.769201
 

  Adding cutoff potential to free-atom effective potential.
  Creating atomic-like basis functions for current effective potential.

  Species H                   :

  List of atomic basis orbitals and eigenvalues:
    n    l      energy [Ha]    energy [eV]    outer radius [A]
    1    0        -0.238386        -6.4868       5.373006

  Assembling full basis from fixed parts.
  | Species H :   atomic orbital   1 s accepted.
  | Species H :    hydro orbital   2 s accepted.
  | Species H :    hydro orbital   1 s accepted.
  | Species H :    hydro orbital   2 s accepted.
  | Species H :    hydro orbital   2 p accepted.
  | Species H :    hydro orbital   2 p accepted.
  | Species H :    hydro orbital   3 d accepted.
 
  Basis size parameters after reduction:
  | Total number of radial functions:        7
  | Total number of basis functions :       30
 
  Testing on-site integration grid accuracy.
  |  Species  Function  <phi|h_atom|phi> (log., in eV)  <phi|h_atom|phi> (rad., in eV)
           1        1                 -6.4870767962                 -6.4871688290
           1        2                 13.5032046589                 13.5028982997
           1        3                 32.8195184817                 32.8119941656
           1        4                 33.8513856511                 33.7670005767 ***
           1        5                 28.8544614965                 28.8544615203
           1        6                 59.6326952547                 59.6327656460
           1        7                 60.2719308513                 60.2719305949
 * Note: Onsite integrals marked "***" above are less accurate than
 * onsite_accuracy_threshold =    0.03000 eV. Usually, this is harmless.
 * When in doubt, tighten the "radial" and/or "radial_multiplier" flags to check.

  Preparing densities etc. for the partition functions (integrals / Hartree potential).

  Preparations completed.
  max(cpu_time)          :      0.078 s.
  Wall clock time (cpu1) :      0.080 s.
------------------------------------------------------------

------------------------------------------------------------
          Begin self-consistency loop: Initialization.

          Date     :  20220120, Time     :  153124.113
------------------------------------------------------------

  Initializing index lists of integration centers etc. from given atomic structure:
  | Number of centers in hartree potential         :         2
  | Number of centers in hartree multipole         :         2
  | Number of centers in electron density summation:         2
  | Number of centers in basis integrals           :         2
  | Number of centers in integrals                 :         2
  Using modified Scalapack Eigenvalue solver (ELPA)
  * Using 8 tasks for Scalapack Eigenvalue solver.
  Detailed listing of tasks and assigned k-points:
  (for non-periodic systems, the "k-point" denotes an internal label only)
   Task     0 k-point     1 on csky021
   Task     1 k-point     1 on csky021
   Task     2 k-point     1 on csky021
   Task     3 k-point     1 on csky021
   Task     4 k-point     1 on csky021
   Task     5 k-point     1 on csky021
   Task     6 k-point     1 on csky021
   Task     7 k-point     1 on csky021
  Tasks:     8 split into      4 X      2 BLACS grid
  Calculating blocksize based on n_basis =           30 max_nprow =            4 max_npcol =            2
  Scalapack blocksize set to:            4
  Required Scalapack workspace - INTEGER:            1 REAL:             1
  Partitioning the integration grid into batches with parallel hashing+maxmin method.
  | Number of batches:      442
  | Maximal batch size:     197
  | Minimal batch size:      49
  | Average batch size:      65.385
  | Standard deviation of batch sizes:      18.769

  Integration load balanced across     8 MPI tasks.
  Work distribution over tasks is as follows:
  Task     0 has       3647 integration points.
  Task     1 has       3588 integration points.
  Task     2 has       3608 integration points.
  Task     3 has       3580 integration points.
  Task     4 has       3589 integration points.
  Task     5 has       3681 integration points.
  Task     6 has       3589 integration points.
  Task     7 has       3618 integration points.
  Initializing partition tables, free-atom densities, potentials, etc. across the integration grid (initialize_grid_storage).
  | initialize_grid_storage: Actual outermost partition radius vs. multipole_radius_free
  | (-- VB: in principle, multipole_radius_free should be larger, hence this output)
  | Species        1: outer_partition_radius =              6.000000000000000 AA, multipole_radius_free =              6.071692442739658 AA.
  | Original list of interatomic distances with           2 x          2 entries is created.
  | Net number of integration points:    28900
  | of which are non-zero points    :    26856
  Obtaining max. number of non-zero basis functions in each batch (get_n_compute_maxes).
  | Maximal number of non-zero basis functions:       30 in task     0
  | Maximal number of non-zero basis functions:       30 in task     1
  | Maximal number of non-zero basis functions:       30 in task     2
  | Maximal number of non-zero basis functions:       30 in task     3
  | Maximal number of non-zero basis functions:       30 in task     4
  | Maximal number of non-zero basis functions:       30 in task     5
  | Maximal number of non-zero basis functions:       30 in task     6
  | Maximal number of non-zero basis functions:       30 in task     7
  Selecting the method for density update.
  Loop over occupied states selected for charge density update.
  Integrating Hamiltonian matrix: batch-based integration.
  Time summed over all CPUs for integration: real work        0.082 s, elapsed        0.091 s
  Integrating overlap matrix.
  Time summed over all CPUs for integration: real work        0.022 s, elapsed        0.026 s
  Deallocating overlap matrix.

  Updating Kohn-Sham eigenvalues, eigenvectors, occupation numbers, and Fermi level.
  Solving generalized eigenproblem
  Solving real symmetric generalised eigenvalue problem by standard ScaLAPACK.
  Transforming overlap matrix with ScaLAPACK and checking for singularities.
  : Overlap matrix is nonsingular, using Cholesky decomposition
  | Lowest eigenvalue:  0.605865E-03
  Factoring overlap matrix with Cholesky decomposition
  Using Cholesky factor for transformation
  Using 1-stage real ELPA solver
  Solving real symmetric generalised eigenvalue problem by standard ScaLAPACK.
  Using Cholesky factor for transformation
  Using 1-stage real ELPA solver
  Determining occupation numbers for Kohn-Sham eigenstates.
  | Chemical potential (Fermi level) in eV                 : -.22639530E+01
  | Error in electron count due to remaining E_F inaccuracy: 0.00000000E+00
  | Maximum occupation number of highest empty state:  0.00E+00

  Writing Kohn-Sham eigenvalues.

  Spin-up eigenvalues:

  State    Occupation    Eigenvalue [Ha]    Eigenvalue [eV]
      1       1.00000          -0.531020          -14.44978
      2       1.00000          -0.084851           -2.30892
      3       0.00000           0.014013            0.38130
      4       0.00000           0.094047            2.55916
      5       0.00000           0.216040            5.87876
      6       0.00000           0.216040            5.87876
      7       0.00000           0.315746            8.59190
      8       0.00000           0.432947           11.78108
      9       0.00000           0.615539           16.74968
     10       0.00000           0.646581           17.59436
     11       0.00000           0.646581           17.59436

  Spin-down eigenvalues:

  State    Occupation    Eigenvalue [Ha]    Eigenvalue [eV]
      1       0.00000           0.099367            2.70391
      2       0.00000           0.116206            3.16212
      3       0.00000           0.504154           13.71872
      4       0.00000           0.541495           14.73483
      5       0.00000           1.134229           30.86393
      6       0.00000           1.134229           30.86393
      7       0.00000           1.269605           34.54771
      8       0.00000           1.510121           41.09248
      9       0.00000           1.510121           41.09248
     10       0.00000           1.544961           42.04054
     11       0.00000           1.629058           44.32891

  Current spin moment of the entire structure :
  | N = N_up - N_down :    2.00
  | S                 :    1.00
  | J                 :    3.00

  Highest occupied state (VBM) at     -2.30892377 eV
  | Occupation number:      1.00000000
  | Spin channel:        1

  Lowest unoccupied state (CBM) at     0.38130392 eV
  | Occupation number:      0.00000000
  | Spin channel:        1

  Overall HOMO-LUMO gap:      2.69022769 eV.
  Calculating total energy contributions from superposition of free atom densities.

  Total energy components:
  | Sum of eigenvalues            :          -0.61587104 Ha         -16.75870354 eV
  | XC energy correction          :          -0.67229847 Ha         -18.29417215 eV
  | XC potential correction       :           0.86679301 Ha          23.58663785 eV
  | Free-atom electrostatic energy:          -0.42540601 Ha         -11.57588638 eV
  | Hartree energy correction     :           0.00000000 Ha           0.00000000 eV
  | van der Waals energy corr.    :           0.00000000 Ha           0.00000000 eV
  | Entropy correction            :           0.00000000 Ha           0.00000000 eV
  | ---------------------------
  | Total energy                  :          -0.84678250 Ha         -23.04212423 eV
  | Total energy, T -> 0          :          -0.84678250 Ha         -23.04212423 eV  <-- do not rely on this value for anything but (periodic) metals
  | Electronic free energy        :          -0.84678250 Ha         -23.04212423 eV

  Derived energy quantities:
  | Kinetic energy                :           1.14491312 Ha          31.15467108 eV
  | Electrostatic energy          :          -1.31939715 Ha         -35.90262315 eV
  | Energy correction for multipole
  | error in Hartree potential    :           0.00000000 Ha           0.00000000 eV
  | Sum of eigenvalues per atom                           :          -8.37935177 eV
  | Total energy (T->0) per atom                          :         -11.52106211 eV  <-- do not rely on this value for anything but (periodic) metals
  | Electronic free energy per atom                       :         -11.52106211 eV
  Initialize hartree_potential_storage
  Max. number of atoms included in rho_multipole:            2

  End scf initialization - timings             :  max(cpu_time)    wall_clock(cpu1)
  | Time for scf. initialization               :        0.045 s           0.045 s
  | Boundary condition initialization          :        0.000 s           0.000 s
  | Integration                                :        0.015 s           0.015 s
  | Solution of K.-S. eqns.                    :        0.007 s           0.008 s
  | Grid partitioning                          :        0.008 s           0.008 s
  | Preloading free-atom quantities on grid    :        0.004 s           0.003 s
  | Free-atom superposition energy             :        0.003 s           0.003 s
  | Total energy evaluation                    :        0.000 s           0.001 s
------------------------------------------------------------

------------------------------------------------------------
          Begin self-consistency iteration #    1

  Date     :  20220120, Time     :  153124.158
------------------------------------------------------------
  Evaluating new KS density.
  Integration grid: deviation in total charge (<rho> - N_e) =   1.640324E-07
  | <rho_up-rho_dn> = N_up-N_dn =      2.0000; <|rho_up-rho_dn|> =      2.0606
  Pulay mixing of updated and previous charge densities.

  Evaluating partitioned Hartree potential by multipole expansion.
  | Analytical far-field extrapolation by fixed multipoles:
  | Hartree multipole sum: apparent total charge =  -0.475322E-05
  Summing up the Hartree potential.
  Time summed over all CPUs for potential: real work        0.034 s, elapsed        0.036 s
  | RMS charge density error from multipole expansion :   0.638129E-03

  Integrating Hamiltonian matrix: batch-based integration.
  Time summed over all CPUs for integration: real work        0.068 s, elapsed        0.071 s

  Updating Kohn-Sham eigenvalues, eigenvectors, occupation numbers, and Fermi level.
  Solving generalized eigenproblem
  Solving real symmetric generalised eigenvalue problem by standard ScaLAPACK.
  Using Cholesky factor for transformation
  Using 1-stage real ELPA solver
  Solving real symmetric generalised eigenvalue problem by standard ScaLAPACK.
  Using Cholesky factor for transformation
  Using 1-stage real ELPA solver
  Determining occupation numbers for Kohn-Sham eigenstates.
  | Chemical potential (Fermi level) in eV                 : -.35565376E+01
  | Error in electron count due to remaining E_F inaccuracy: 0.00000000E+00
  | Maximum occupation number of highest empty state:  0.00E+00

  Writing Kohn-Sham eigenvalues.

  Spin-up eigenvalues:

  State    Occupation    Eigenvalue [Ha]    Eigenvalue [eV]
      1       1.00000          -0.390015          -10.61285
      2       0.00000           0.070426            1.91640
      3       0.00000           0.075737            2.06091
      4       0.00000           0.197348            5.37010
      5       0.00000           0.274420            7.46734
      6       0.00000           0.274420            7.46734
      7       0.00000           0.385635           10.49367
      8       0.00000           0.583939           15.88978
      9       0.00000           0.768620           20.91521
     10       0.00000           0.768620           20.91521
     11       0.00000           0.824146           22.42616

  Spin-down eigenvalues:

  State    Occupation    Eigenvalue [Ha]    Eigenvalue [eV]
      1       1.00000          -0.200114           -5.44539
      2       0.00000           0.091530            2.49065
      3       0.00000           0.093873            2.55443
      4       0.00000           0.252971            6.88369
      5       0.00000           0.381301           10.37572
      6       0.00000           0.381301           10.37572
      7       0.00000           0.459741           12.51019
      8       0.00000           0.686741           18.68717
      9       0.00000           0.855577           23.28144
     10       0.00000           0.855577           23.28144
     11       0.00000           0.860797           23.42349

  Current spin moment of the entire structure :
  | N = N_up - N_down :    0.00
  | S                 :    0.00
  | J                 :    1.00

  Highest occupied state (VBM) at     -5.44538860 eV
  | Occupation number:      1.00000000
  | Spin channel:        2

  Lowest unoccupied state (CBM) at     1.91640171 eV
  | Occupation number:      0.00000000
  | Spin channel:        1

  Overall HOMO-LUMO gap:      7.36179031 eV.

  Total energy components:
  | Sum of eigenvalues            :          -0.59012951 Ha         -16.05824111 eV
  | XC energy correction          :          -0.40018646 Ha         -10.88962762 eV
  | XC potential correction       :           0.51570579 Ha          14.03306843 eV
  | Free-atom electrostatic energy:          -0.42540601 Ha         -11.57588638 eV
  | Hartree energy correction     :          -0.00983127 Ha          -0.26752253 eV
  | van der Waals energy corr.    :           0.00000000 Ha           0.00000000 eV
  | Entropy correction            :           0.00000000 Ha           0.00000000 eV
  | ---------------------------
  | Total energy                  :          -0.90984747 Ha         -24.75820922 eV
  | Total energy, T -> 0          :          -0.90984747 Ha         -24.75820922 eV  <-- do not rely on this value for anything but (periodic) metals
  | Electronic free energy        :          -0.90984747 Ha         -24.75820922 eV

  Derived energy quantities:
  | Kinetic energy                :           0.86937138 Ha          23.65679883 eV
  | Electrostatic energy          :          -1.37903238 Ha         -37.52538043 eV
  | Energy correction for multipole
  | error in Hartree potential    :          -0.00015941 Ha          -0.00433768 eV
  | Sum of eigenvalues per atom                           :          -8.02912056 eV
  | Total energy (T->0) per atom                          :         -12.37910461 eV  <-- do not rely on this value for anything but (periodic) metals
  | Electronic free energy per atom                       :         -12.37910461 eV

  Self-consistency convergence accuracy:
  | Change of charge/spin density : 0.4240E-01 0.4240E-01
  | Change of sum of eigenvalues  : 0.7005E+00 eV
  | Change of total energy        : -.1716E+01 eV

  End self-consistency iteration #     1       :  max(cpu_time)    wall_clock(cpu1)
  | Time for this iteration                    :        0.027 s           0.027 s
  | Charge density update                      :        0.007 s           0.007 s
  | Density mixing                             :        0.001 s           0.001 s
  | Hartree multipole update                   :        0.001 s           0.001 s
  | Hartree multipole summation                :        0.005 s           0.005 s
  | Integration                                :        0.009 s           0.009 s
  | Solution of K.-S. eqns.                    :        0.002 s           0.002 s
  | Total energy evaluation                    :        0.000 s           0.001 s
------------------------------------------------------------

------------------------------------------------------------
          Begin self-consistency iteration #    2

  Date     :  20220120, Time     :  153124.189
------------------------------------------------------------
  Evaluating new KS density.
  Integration grid: deviation in total charge (<rho> - N_e) =   9.841944E-08
  | <rho_up-rho_dn> = N_up-N_dn =     -2.0000; <|rho_up-rho_dn|> =      2.0000
  Pulay mixing of updated and previous charge densities.

  Evaluating partitioned Hartree potential by multipole expansion.
  | Analytical far-field extrapolation by fixed multipoles:
  | Hartree multipole sum: apparent total charge =  -0.467495E-05
  Summing up the Hartree potential.
  Time summed over all CPUs for potential: real work        0.034 s, elapsed        0.035 s
  | RMS charge density error from multipole expansion :   0.612122E-03

  Integrating Hamiltonian matrix: batch-based integration.
  Time summed over all CPUs for integration: real work        0.070 s, elapsed        0.073 s

  Updating Kohn-Sham eigenvalues, eigenvectors, occupation numbers, and Fermi level.
  Solving generalized eigenproblem
  Solving real symmetric generalised eigenvalue problem by standard ScaLAPACK.
  Using Cholesky factor for transformation
  Using 1-stage real ELPA solver
  Solving real symmetric generalised eigenvalue problem by standard ScaLAPACK.
  Using Cholesky factor for transformation
  Using 1-stage real ELPA solver
  Determining occupation numbers for Kohn-Sham eigenstates.
  | Chemical potential (Fermi level) in eV                 : -.58102839E+01
  | Error in electron count due to remaining E_F inaccuracy: 0.00000000E+00
  | Maximum occupation number of highest empty state:  0.00E+00

  Current spin moment of the entire structure :
  | N = N_up - N_down :    0.00
  | S                 :    0.00
  | J                 :    1.00

  Highest occupied state (VBM) at     -7.09571306 eV
  | Occupation number:      1.00000000
  | Spin channel:        2

  Lowest unoccupied state (CBM) at     0.61287452 eV
  | Occupation number:      0.00000000
  | Spin channel:        1

  Overall HOMO-LUMO gap:      7.70858758 eV.

  Total energy components:
  | Sum of eigenvalues            :          -0.75025649 Ha         -20.41551781 eV
  | XC energy correction          :          -0.55720250 Ha         -15.16225136 eV
  | XC potential correction       :           0.71976829 Ha          19.58589173 eV
  | Free-atom electrostatic energy:          -0.42540601 Ha         -11.57588638 eV
  | Hartree energy correction     :          -0.01228644 Ha          -0.33433103 eV
  | van der Waals energy corr.    :           0.00000000 Ha           0.00000000 eV
  | Entropy correction            :           0.00000000 Ha           0.00000000 eV
  | ---------------------------
  | Total energy                  :          -1.02538314 Ha         -27.90209485 eV
  | Total energy, T -> 0          :          -1.02538314 Ha         -27.90209485 eV  <-- do not rely on this value for anything but (periodic) metals
  | Electronic free energy        :          -1.02538314 Ha         -27.90209485 eV

  Derived energy quantities:
  | Kinetic energy                :           0.91221530 Ha          24.82264126 eV
  | Electrostatic energy          :          -1.38039594 Ha         -37.56248474 eV
  | Energy correction for multipole
  | error in Hartree potential    :          -0.00015530 Ha          -0.00422589 eV
  | Sum of eigenvalues per atom                           :         -10.20775891 eV
  | Total energy (T->0) per atom                          :         -13.95104743 eV  <-- do not rely on this value for anything but (periodic) metals
  | Electronic free energy per atom                       :         -13.95104743 eV

  Self-consistency convergence accuracy:
  | Change of charge/spin density : 0.1162E+00 0.2784E+00
  | Change of sum of eigenvalues  : -.4357E+01 eV
  | Change of total energy        : -.3144E+01 eV

  End self-consistency iteration #     2       :  max(cpu_time)    wall_clock(cpu1)
  | Time for this iteration                    :        0.026 s           0.025 s
  | Charge density update                      :        0.007 s           0.006 s
  | Density mixing                             :        0.001 s           0.001 s
  | Hartree multipole update                   :        0.001 s           0.001 s
  | Hartree multipole summation                :        0.005 s           0.005 s
  | Integration                                :        0.009 s           0.009 s
  | Solution of K.-S. eqns.                    :        0.001 s           0.002 s
  | Total energy evaluation                    :        0.000 s           0.001 s
------------------------------------------------------------

------------------------------------------------------------
          Begin self-consistency iteration #    3

  Date     :  20220120, Time     :  153124.219
------------------------------------------------------------
  Evaluating new KS density.
  Integration grid: deviation in total charge (<rho> - N_e) =   9.665954E-08
  | <rho_up-rho_dn> = N_up-N_dn =     -1.9464; <|rho_up-rho_dn|> =      1.9464
  Pulay mixing of updated and previous charge densities.

  Evaluating partitioned Hartree potential by multipole expansion.
  | Analytical far-field extrapolation by fixed multipoles:
  | Hartree multipole sum: apparent total charge =  -0.473549E-05
  Summing up the Hartree potential.
  Time summed over all CPUs for potential: real work        0.034 s, elapsed        0.034 s
  | RMS charge density error from multipole expansion :   0.585880E-03

  Integrating Hamiltonian matrix: batch-based integration.
  Time summed over all CPUs for integration: real work        0.068 s, elapsed        0.071 s

  Updating Kohn-Sham eigenvalues, eigenvectors, occupation numbers, and Fermi level.
  Solving generalized eigenproblem
  Solving real symmetric generalised eigenvalue problem by standard ScaLAPACK.
  Using Cholesky factor for transformation
  Using 1-stage real ELPA solver
  Solving real symmetric generalised eigenvalue problem by standard ScaLAPACK.
  Using Cholesky factor for transformation
  Using 1-stage real ELPA solver
  Determining occupation numbers for Kohn-Sham eigenstates.
  | Chemical potential (Fermi level) in eV                 : -.55130801E+01
  | Error in electron count due to remaining E_F inaccuracy: 0.00000000E+00
  | Maximum occupation number of highest empty state:  0.00E+00

  Current spin moment of the entire structure :
  | N = N_up - N_down :    0.00
  | S                 :    0.00
  | J                 :    1.00

  Highest occupied state (VBM) at     -6.47245493 eV
  | Occupation number:      1.00000000
  | Spin channel:        2

  Lowest unoccupied state (CBM) at     0.95892015 eV
  | Occupation number:      0.00000000
  | Spin channel:        1

  Overall HOMO-LUMO gap:      7.43137507 eV.

  Total energy components:
  | Sum of eigenvalues            :          -0.71470694 Ha         -19.44816525 eV
  | XC energy correction          :          -0.53028668 Ha         -14.42983463 eV
  | XC potential correction       :           0.68485800 Ha          18.63593445 eV
  | Free-atom electrostatic energy:          -0.42540601 Ha         -11.57588638 eV
  | Hartree energy correction     :          -0.00703623 Ha          -0.19146544 eV
  | van der Waals energy corr.    :           0.00000000 Ha           0.00000000 eV
  | Entropy correction            :           0.00000000 Ha           0.00000000 eV
  | ---------------------------
  | Total energy                  :          -0.99257784 Ha         -27.00941725 eV
  | Total energy, T -> 0          :          -0.99257784 Ha         -27.00941725 eV  <-- do not rely on this value for anything but (periodic) metals
  | Electronic free energy        :          -0.99257784 Ha         -27.00941725 eV

  Derived energy quantities:
  | Kinetic energy                :           0.90779921 Ha          24.70247333 eV
  | Electrostatic energy          :          -1.37009037 Ha         -37.28205595 eV
  | Energy correction for multipole
  | error in Hartree potential    :          -0.00014720 Ha          -0.00400563 eV
  | Sum of eigenvalues per atom                           :          -9.72408263 eV
  | Total energy (T->0) per atom                          :         -13.50470862 eV  <-- do not rely on this value for anything but (periodic) metals
  | Electronic free energy per atom                       :         -13.50470862 eV

  Self-consistency convergence accuracy:
  | Change of charge/spin density : 0.1276E+00 0.2666E+00
  | Change of sum of eigenvalues  : 0.9674E+00 eV
  | Change of total energy        : 0.8927E+00 eV

  End self-consistency iteration #     3       :  max(cpu_time)    wall_clock(cpu1)
  | Time for this iteration                    :        0.027 s           0.025 s
  | Charge density update                      :        0.008 s           0.006 s
  | Density mixing                             :        0.001 s           0.001 s
  | Hartree multipole update                   :        0.001 s           0.002 s
  | Hartree multipole summation                :        0.005 s           0.004 s
  | Integration                                :        0.009 s           0.009 s
  | Solution of K.-S. eqns.                    :        0.001 s           0.002 s
  | Total energy evaluation                    :        0.000 s           0.001 s
------------------------------------------------------------

------------------------------------------------------------
          Begin self-consistency iteration #    4

  Date     :  20220120, Time     :  153124.249
------------------------------------------------------------
  Evaluating new KS density.
  Integration grid: deviation in total charge (<rho> - N_e) =   9.710493E-08
  | <rho_up-rho_dn> = N_up-N_dn =     -1.9582; <|rho_up-rho_dn|> =      1.9582
  Pulay mixing of updated and previous charge densities.

  Evaluating partitioned Hartree potential by multipole expansion.
  | Analytical far-field extrapolation by fixed multipoles:
  | Hartree multipole sum: apparent total charge =  -0.472325E-05
  Summing up the Hartree potential.
  Time summed over all CPUs for potential: real work        0.033 s, elapsed        0.034 s
  | RMS charge density error from multipole expansion :   0.527373E-03

  Integrating Hamiltonian matrix: batch-based integration.
  Time summed over all CPUs for integration: real work        0.072 s, elapsed        0.077 s

  Updating Kohn-Sham eigenvalues, eigenvectors, occupation numbers, and Fermi level.
  Solving generalized eigenproblem
  Solving real symmetric generalised eigenvalue problem by standard ScaLAPACK.
  Using Cholesky factor for transformation
  Using 1-stage real ELPA solver
  Solving real symmetric generalised eigenvalue problem by standard ScaLAPACK.
  Using Cholesky factor for transformation
  Using 1-stage real ELPA solver
  Determining occupation numbers for Kohn-Sham eigenstates.
  | Chemical potential (Fermi level) in eV                 : -.32039889E+01
  | Error in electron count due to remaining E_F inaccuracy: 0.00000000E+00
  | Maximum occupation number of highest empty state:  0.00E+00

  Current spin moment of the entire structure :
  | N = N_up - N_down :    0.00
  | S                 :    0.00
  | J                 :    1.00

  Highest occupied state (VBM) at     -5.70932838 eV
  | Occupation number:      1.00000000
  | Spin channel:        2

  Lowest unoccupied state (CBM) at     1.14732521 eV
  | Occupation number:      0.00000000
  | Spin channel:        1

  Overall HOMO-LUMO gap:      6.85665359 eV.

  Total energy components:
  | Sum of eigenvalues            :          -0.57618324 Ha         -15.67874359 eV
  | XC energy correction          :          -0.41414788 Ha         -11.26953725 eV
  | XC potential correction       :           0.53152762 Ha          14.46360252 eV
  | Free-atom electrostatic energy:          -0.42540601 Ha         -11.57588638 eV
  | Hartree energy correction     :          -0.00200817 Ha          -0.05464520 eV
  | van der Waals energy corr.    :           0.00000000 Ha           0.00000000 eV
  | Entropy correction            :           0.00000000 Ha           0.00000000 eV
  | ---------------------------
  | Total energy                  :          -0.88621767 Ha         -24.11520990 eV
  | Total energy, T -> 0          :          -0.88621767 Ha         -24.11520990 eV  <-- do not rely on this value for anything but (periodic) metals
  | Electronic free energy        :          -0.88621767 Ha         -24.11520990 eV

  Derived energy quantities:
  | Kinetic energy                :           0.88628841 Ha          24.11713465 eV
  | Electrostatic energy          :          -1.35835820 Ha         -36.96280729 eV
  | Energy correction for multipole
  | error in Hartree potential    :          -0.00013094 Ha          -0.00356307 eV
  | Sum of eigenvalues per atom                           :          -7.83937179 eV
  | Total energy (T->0) per atom                          :         -12.05760495 eV  <-- do not rely on this value for anything but (periodic) metals
  | Electronic free energy per atom                       :         -12.05760495 eV

  Self-consistency convergence accuracy:
  | Change of charge/spin density : 0.1208E+00 0.2617E+00
  | Change of sum of eigenvalues  : 0.3769E+01 eV
  | Change of total energy        : 0.2894E+01 eV

  End self-consistency iteration #     4       :  max(cpu_time)    wall_clock(cpu1)
  | Time for this iteration                    :        0.027 s           0.026 s
  | Charge density update                      :        0.008 s           0.006 s
  | Density mixing                             :        0.001 s           0.001 s
  | Hartree multipole update                   :        0.001 s           0.002 s
  | Hartree multipole summation                :        0.005 s           0.004 s
  | Integration                                :        0.010 s           0.010 s
  | Solution of K.-S. eqns.                    :        0.002 s           0.002 s
  | Total energy evaluation                    :        0.000 s           0.000 s
------------------------------------------------------------

------------------------------------------------------------
          Begin self-consistency iteration #    5

  Date     :  20220120, Time     :  153124.278
------------------------------------------------------------
  Evaluating new KS density.
  Integration grid: deviation in total charge (<rho> - N_e) =   9.595050E-08
  | <rho_up-rho_dn> = N_up-N_dn =     -1.9219; <|rho_up-rho_dn|> =      1.9219
  Pulay mixing of updated and previous charge densities.

  Evaluating partitioned Hartree potential by multipole expansion.
  | Analytical far-field extrapolation by fixed multipoles:
  | Hartree multipole sum: apparent total charge =  -0.479566E-05
  Summing up the Hartree potential.
  Time summed over all CPUs for potential: real work        0.036 s, elapsed        0.039 s
  | RMS charge density error from multipole expansion :   0.598139E-03

  Integrating Hamiltonian matrix: batch-based integration.
  Time summed over all CPUs for integration: real work        0.069 s, elapsed        0.074 s

  Updating Kohn-Sham eigenvalues, eigenvectors, occupation numbers, and Fermi level.
  Solving generalized eigenproblem
  Solving real symmetric generalised eigenvalue problem by standard ScaLAPACK.
  Using Cholesky factor for transformation
  Using 1-stage real ELPA solver
  Solving real symmetric generalised eigenvalue problem by standard ScaLAPACK.
  Using Cholesky factor for transformation
  Using 1-stage real ELPA solver
  Determining occupation numbers for Kohn-Sham eigenstates.
  | Chemical potential (Fermi level) in eV                 : -.24954774E+01
  | Error in electron count due to remaining E_F inaccuracy: 0.00000000E+00
  | Maximum occupation number of highest empty state:  0.00E+00

  Current spin moment of the entire structure :
  | N = N_up - N_down :    0.00
  | S                 :    0.00
  | J                 :    1.00

  Highest occupied state (VBM) at     -4.96337670 eV
  | Occupation number:      1.00000000
  | Spin channel:        2

  Lowest unoccupied state (CBM) at     1.95729842 eV
  | Occupation number:      0.00000000
  | Spin channel:        1

  Overall HOMO-LUMO gap:      6.92067512 eV.

  Total energy components:
  | Sum of eigenvalues            :          -0.52345697 Ha         -14.24398882 eV
  | XC energy correction          :          -0.33882371 Ha          -9.21986236 eV
  | XC potential correction       :           0.43574330 Ha          11.85717850 eV
  | Free-atom electrostatic energy:          -0.42540601 Ha         -11.57588638 eV
  | Hartree energy correction     :          -0.01204274 Ha          -0.32769949 eV
  | van der Waals energy corr.    :           0.00000000 Ha           0.00000000 eV
  | Entropy correction            :           0.00000000 Ha           0.00000000 eV
  | ---------------------------
  | Total energy                  :          -0.86398612 Ha         -23.51025855 eV
  | Total energy, T -> 0          :          -0.86398612 Ha         -23.51025855 eV  <-- do not rely on this value for anything but (periodic) metals
  | Electronic free energy        :          -0.86398612 Ha         -23.51025855 eV

  Derived energy quantities:
  | Kinetic energy                :           0.85289085 Ha          23.20834091 eV
  | Electrostatic energy          :          -1.37805326 Ha         -37.49873711 eV
  | Energy correction for multipole
  | error in Hartree potential    :          -0.00015628 Ha          -0.00425248 eV
  | Sum of eigenvalues per atom                           :          -7.12199441 eV
  | Total energy (T->0) per atom                          :         -11.75512928 eV  <-- do not rely on this value for anything but (periodic) metals
  | Electronic free energy per atom                       :         -11.75512928 eV

  Self-consistency convergence accuracy:
  | Change of charge/spin density : 0.7599E-01 0.2813E+00
  | Change of sum of eigenvalues  : 0.1435E+01 eV
  | Change of total energy        : 0.6050E+00 eV

  End self-consistency iteration #     5       :  max(cpu_time)    wall_clock(cpu1)
  | Time for this iteration                    :        0.028 s           0.028 s
  | Charge density update                      :        0.007 s           0.007 s
  | Density mixing                             :        0.002 s           0.002 s
  | Hartree multipole update                   :        0.002 s           0.002 s
  | Hartree multipole summation                :        0.005 s           0.005 s
  | Integration                                :        0.009 s           0.009 s
  | Solution of K.-S. eqns.                    :        0.002 s           0.002 s
  | Total energy evaluation                    :        0.000 s           0.000 s
------------------------------------------------------------

------------------------------------------------------------
          Begin self-consistency iteration #    6

  Date     :  20220120, Time     :  153124.309
------------------------------------------------------------
  Evaluating new KS density.
  Integration grid: deviation in total charge (<rho> - N_e) =   9.872814E-08
  | <rho_up-rho_dn> = N_up-N_dn =     -2.0008; <|rho_up-rho_dn|> =      2.0008
  Pulay mixing of updated and previous charge densities.

  Evaluating partitioned Hartree potential by multipole expansion.
  | Analytical far-field extrapolation by fixed multipoles:
  | Hartree multipole sum: apparent total charge =  -0.476915E-05
  Summing up the Hartree potential.
  Time summed over all CPUs for potential: real work        0.035 s, elapsed        0.037 s
  | RMS charge density error from multipole expansion :   0.845566E-03

  Integrating Hamiltonian matrix: batch-based integration.
  Time summed over all CPUs for integration: real work        0.070 s, elapsed        0.077 s

  Updating Kohn-Sham eigenvalues, eigenvectors, occupation numbers, and Fermi level.
  Solving generalized eigenproblem
  Solving real symmetric generalised eigenvalue problem by standard ScaLAPACK.
  Using Cholesky factor for transformation
  Using 1-stage real ELPA solver
  Solving real symmetric generalised eigenvalue problem by standard ScaLAPACK.
  Using Cholesky factor for transformation
  Using 1-stage real ELPA solver
  Determining occupation numbers for Kohn-Sham eigenstates.
  | Chemical potential (Fermi level) in eV                 : -.35996178E+01
  | Error in electron count due to remaining E_F inaccuracy: 0.00000000E+00
  | Maximum occupation number of highest empty state:  0.00E+00

  Current spin moment of the entire structure :
  | N = N_up - N_down :    0.00
  | S                 :    0.00
  | J                 :    1.00

  Highest occupied state (VBM) at     -6.26237726 eV
  | Occupation number:      1.00000000
  | Spin channel:        2

  Lowest unoccupied state (CBM) at     0.43980407 eV
  | Occupation number:      0.00000000
  | Spin channel:        1

  Overall HOMO-LUMO gap:      6.70218133 eV.

  Total energy components:
  | Sum of eigenvalues            :          -0.60985804 Ha         -16.59508149 eV
  | XC energy correction          :          -0.45989622 Ha         -12.51441293 eV
  | XC potential correction       :           0.59069903 Ha          16.07373844 eV
  | Free-atom electrostatic energy:          -0.42540601 Ha         -11.57588638 eV
  | Hartree energy correction     :          -0.00130207 Ha          -0.03543104 eV
  | van der Waals energy corr.    :           0.00000000 Ha           0.00000000 eV
  | Entropy correction            :           0.00000000 Ha           0.00000000 eV
  | ---------------------------
  | Total energy                  :          -0.90576330 Ha         -24.64707341 eV
  | Total energy, T -> 0          :          -0.90576330 Ha         -24.64707341 eV  <-- do not rely on this value for anything but (periodic) metals
  | Electronic free energy        :          -0.90576330 Ha         -24.64707341 eV

  Derived energy quantities:
  | Kinetic energy                :           0.90615154 Ha          24.65763797 eV
  | Electrostatic energy          :          -1.35201862 Ha         -36.79029844 eV
  | Energy correction for multipole
  | error in Hartree potential    :          -0.00017167 Ha          -0.00467146 eV
  | Sum of eigenvalues per atom                           :          -8.29754075 eV
  | Total energy (T->0) per atom                          :         -12.32353670 eV  <-- do not rely on this value for anything but (periodic) metals
  | Electronic free energy per atom                       :         -12.32353670 eV

  Self-consistency convergence accuracy:
  | Change of charge/spin density : 0.1016E+00 0.2860E+00
  | Change of sum of eigenvalues  : -.2351E+01 eV
  | Change of total energy        : -.1137E+01 eV

  End self-consistency iteration #     6       :  max(cpu_time)    wall_clock(cpu1)
  | Time for this iteration                    :        0.029 s           0.028 s
  | Charge density update                      :        0.008 s           0.007 s
  | Density mixing                             :        0.002 s           0.002 s
  | Hartree multipole update                   :        0.001 s           0.001 s
  | Hartree multipole summation                :        0.005 s           0.005 s
  | Integration                                :        0.010 s           0.010 s
  | Solution of K.-S. eqns.                    :        0.002 s           0.002 s
  | Total energy evaluation                    :        0.000 s           0.000 s
------------------------------------------------------------

------------------------------------------------------------
          Begin self-consistency iteration #    7

  Date     :  20220120, Time     :  153124.339
------------------------------------------------------------
  Evaluating new KS density.
  Integration grid: deviation in total charge (<rho> - N_e) =   9.458337E-08
  | <rho_up-rho_dn> = N_up-N_dn =     -1.9129; <|rho_up-rho_dn|> =      1.9129
  Pulay mixing of updated and previous charge densities.

  Evaluating partitioned Hartree potential by multipole expansion.
  | Analytical far-field extrapolation by fixed multipoles:
  | Hartree multipole sum: apparent total charge =  -0.477412E-05
  Summing up the Hartree potential.
  Time summed over all CPUs for potential: real work        0.036 s, elapsed        0.040 s
  | RMS charge density error from multipole expansion :   0.893535E-03

  Integrating Hamiltonian matrix: batch-based integration.
  Time summed over all CPUs for integration: real work        0.071 s, elapsed        0.077 s

  Updating Kohn-Sham eigenvalues, eigenvectors, occupation numbers, and Fermi level.
  Solving generalized eigenproblem
  Solving real symmetric generalised eigenvalue problem by standard ScaLAPACK.
  Using Cholesky factor for transformation
  Using 1-stage real ELPA solver
  Solving real symmetric generalised eigenvalue problem by standard ScaLAPACK.
  Using Cholesky factor for transformation
  Using 1-stage real ELPA solver
  Determining occupation numbers for Kohn-Sham eigenstates.
  | Chemical potential (Fermi level) in eV                 : -.37104497E+01
  | Error in electron count due to remaining E_F inaccuracy: 0.00000000E+00
  | Maximum occupation number of highest empty state:  0.00E+00

  Current spin moment of the entire structure :
  | N = N_up - N_down :    0.00
  | S                 :    0.00
  | J                 :    1.00

  Highest occupied state (VBM) at     -6.35876439 eV
  | Occupation number:      1.00000000
  | Spin channel:        2

  Lowest unoccupied state (CBM) at     0.24920768 eV
  | Occupation number:      0.00000000
  | Spin channel:        1

  Overall HOMO-LUMO gap:      6.60797208 eV.

  Total energy components:
  | Sum of eigenvalues            :          -0.61681744 Ha         -16.78445642 eV
  | XC energy correction          :          -0.46901034 Ha         -12.76242062 eV
  | XC potential correction       :           0.60246719 Ha          16.39396635 eV
  | Free-atom electrostatic energy:          -0.42540601 Ha         -11.57588638 eV
  | Hartree energy correction     :          -0.00016711 Ha          -0.00454726 eV
  | van der Waals energy corr.    :           0.00000000 Ha           0.00000000 eV
  | Entropy correction            :           0.00000000 Ha           0.00000000 eV
  | ---------------------------
  | Total energy                  :          -0.90893370 Ha         -24.73334433 eV
  | Total energy, T -> 0          :          -0.90893370 Ha         -24.73334433 eV  <-- do not rely on this value for anything but (periodic) metals
  | Electronic free energy        :          -0.90893370 Ha         -24.73334433 eV

  Derived energy quantities:
  | Kinetic energy                :           0.90892441 Ha          24.73309154 eV
  | Electrostatic energy          :          -1.34884777 Ha         -36.70401525 eV
  | Energy correction for multipole
  | error in Hartree potential    :          -0.00017510 Ha          -0.00476480 eV
  | Sum of eigenvalues per atom                           :          -8.39222821 eV
  | Total energy (T->0) per atom                          :         -12.36667217 eV  <-- do not rely on this value for anything but (periodic) metals
  | Electronic free energy per atom                       :         -12.36667217 eV

  Self-consistency convergence accuracy:
  | Change of charge/spin density : 0.8066E-01 0.2818E+00
  | Change of sum of eigenvalues  : -.1894E+00 eV
  | Change of total energy        : -.8627E-01 eV

  End self-consistency iteration #     7       :  max(cpu_time)    wall_clock(cpu1)
  | Time for this iteration                    :        0.029 s           0.028 s
  | Charge density update                      :        0.007 s           0.006 s
  | Density mixing                             :        0.002 s           0.003 s
  | Hartree multipole update                   :        0.002 s           0.001 s
  | Hartree multipole summation                :        0.005 s           0.006 s
  | Integration                                :        0.010 s           0.010 s
  | Solution of K.-S. eqns.                    :        0.001 s           0.001 s
  | Total energy evaluation                    :        0.000 s           0.001 s
------------------------------------------------------------

------------------------------------------------------------
          Begin self-consistency iteration #    8

  Date     :  20220120, Time     :  153124.369
------------------------------------------------------------
  Evaluating new KS density.
  Integration grid: deviation in total charge (<rho> - N_e) =   9.426437E-08
  | <rho_up-rho_dn> = N_up-N_dn =     -1.9075; <|rho_up-rho_dn|> =      1.9075
  Pulay mixing of updated and previous charge densities.

  Evaluating partitioned Hartree potential by multipole expansion.
  | Analytical far-field extrapolation by fixed multipoles:
  | Hartree multipole sum: apparent total charge =  -0.489666E-05
  Summing up the Hartree potential.
  Time summed over all CPUs for potential: real work        0.035 s, elapsed        0.040 s
  | RMS charge density error from multipole expansion :   0.866855E-03

  Integrating Hamiltonian matrix: batch-based integration.
  Time summed over all CPUs for integration: real work        0.065 s, elapsed        0.072 s

  Updating Kohn-Sham eigenvalues, eigenvectors, occupation numbers, and Fermi level.
  Solving generalized eigenproblem
  Solving real symmetric generalised eigenvalue problem by standard ScaLAPACK.
  Using Cholesky factor for transformation
  Using 1-stage real ELPA solver
  Solving real symmetric generalised eigenvalue problem by standard ScaLAPACK.
  Using Cholesky factor for transformation
  Using 1-stage real ELPA solver
  Determining occupation numbers for Kohn-Sham eigenstates.
  | Chemical potential (Fermi level) in eV                 : -.14341266E+01
  | Error in electron count due to remaining E_F inaccuracy: 0.00000000E+00
  | Maximum occupation number of highest empty state:  0.00E+00

  Current spin moment of the entire structure :
  | N = N_up - N_down :    0.00
  | S                 :    0.00
  | J                 :    1.00

  Highest occupied state (VBM) at     -5.13421357 eV
  | Occupation number:      1.00000000
  | Spin channel:        2

  Lowest unoccupied state (CBM) at     2.49162622 eV
  | Occupation number:      0.00000000
  | Spin channel:        1

  Overall HOMO-LUMO gap:      7.62583979 eV.

  Total energy components:
  | Sum of eigenvalues            :          -0.50225260 Ha         -13.66698868 eV
  | XC energy correction          :          -0.34920059 Ha          -9.50223164 eV
  | XC potential correction       :           0.45333330 Ha          12.33582665 eV
  | Free-atom electrostatic energy:          -0.42540601 Ha         -11.57588638 eV
  | Hartree energy correction     :          -0.06774614 Ha          -1.84346638 eV
  | van der Waals energy corr.    :           0.00000000 Ha           0.00000000 eV
  | Entropy correction            :           0.00000000 Ha           0.00000000 eV
  | ---------------------------
  | Total energy                  :          -0.89127205 Ha         -24.25274644 eV
  | Total energy, T -> 0          :          -0.89127205 Ha         -24.25274644 eV  <-- do not rely on this value for anything but (periodic) metals
  | Electronic free energy        :          -0.89127205 Ha         -24.25274644 eV

  Derived energy quantities:
  | Kinetic energy                :           0.92242119 Ha          25.10035766 eV
  | Electrostatic energy          :          -1.46449264 Ha         -39.85087246 eV
  | Energy correction for multipole
  | error in Hartree potential    :          -0.00024027 Ha          -0.00653817 eV
  | Sum of eigenvalues per atom                           :          -6.83349434 eV
  | Total energy (T->0) per atom                          :         -12.12637322 eV  <-- do not rely on this value for anything but (periodic) metals
  | Electronic free energy per atom                       :         -12.12637322 eV

  Self-consistency convergence accuracy:
  | Change of charge/spin density : 0.8183E-01 0.2810E+00
  | Change of sum of eigenvalues  : 0.3117E+01 eV
  | Change of total energy        : 0.4806E+00 eV

  End self-consistency iteration #     8       :  max(cpu_time)    wall_clock(cpu1)
  | Time for this iteration                    :        0.028 s           0.028 s
  | Charge density update                      :        0.008 s           0.007 s
  | Density mixing                             :        0.002 s           0.002 s
  | Hartree multipole update                   :        0.001 s           0.002 s
  | Hartree multipole summation                :        0.005 s           0.005 s
  | Integration                                :        0.009 s           0.009 s
  | Solution of K.-S. eqns.                    :        0.002 s           0.002 s
  | Total energy evaluation                    :        0.000 s           0.001 s
------------------------------------------------------------

------------------------------------------------------------
          Begin self-consistency iteration #    9

  Date     :  20220120, Time     :  153124.399
------------------------------------------------------------
  Evaluating new KS density.
  Integration grid: deviation in total charge (<rho> - N_e) =   1.043018E-07
  | <rho_up-rho_dn> = N_up-N_dn =     -2.1679; <|rho_up-rho_dn|> =      2.1679
  Pulay mixing of updated and previous charge densities.

  Evaluating partitioned Hartree potential by multipole expansion.
  | Analytical far-field extrapolation by fixed multipoles:
  | Hartree multipole sum: apparent total charge =  -0.463514E-05
  Summing up the Hartree potential.
  Time summed over all CPUs for potential: real work        0.034 s, elapsed        0.036 s
  | RMS charge density error from multipole expansion :   0.407339E-02

  Integrating Hamiltonian matrix: batch-based integration.
  Time summed over all CPUs for integration: real work        0.070 s, elapsed        0.074 s

  Updating Kohn-Sham eigenvalues, eigenvectors, occupation numbers, and Fermi level.
  Solving generalized eigenproblem
  Solving real symmetric generalised eigenvalue problem by standard ScaLAPACK.
  Using Cholesky factor for transformation
  Using 1-stage real ELPA solver
  Solving real symmetric generalised eigenvalue problem by standard ScaLAPACK.
  Using Cholesky factor for transformation
  Using 1-stage real ELPA solver
  Determining occupation numbers for Kohn-Sham eigenstates.
  | Chemical potential (Fermi level) in eV                 : -.13093318E+02
  | Error in electron count due to remaining E_F inaccuracy: 0.00000000E+00
  | Maximum occupation number of highest empty state:  0.00E+00

  Current spin moment of the entire structure :
  | N = N_up - N_down :    0.00
  | S                 :    0.00
  | J                 :    1.00

  Highest occupied state (VBM) at    -14.46283315 eV
  | Occupation number:      1.00000000
  | Spin channel:        2

  Lowest unoccupied state (CBM) at    -2.88621445 eV
  | Occupation number:      0.00000000
  | Spin channel:        1

  Overall HOMO-LUMO gap:     11.57661870 eV.

  Total energy components:
  | Sum of eigenvalues            :          -1.09828330 Ha         -29.88580927 eV
  | XC energy correction          :          -0.69691776 Ha         -18.96409721 eV
  | XC potential correction       :           0.89455974 Ha          24.34220900 eV
  | Free-atom electrostatic energy:          -0.42540601 Ha         -11.57588638 eV
  | Hartree energy correction     :           0.08149214 Ha           2.21751392 eV
  | van der Waals energy corr.    :           0.00000000 Ha           0.00000000 eV
  | Entropy correction            :           0.00000000 Ha           0.00000000 eV
  | ---------------------------
  | Total energy                  :          -1.24455519 Ha         -33.86606994 eV
  | Total energy, T -> 0          :          -1.24455519 Ha         -33.86606994 eV  <-- do not rely on this value for anything but (periodic) metals
  | Electronic free energy        :          -1.24455519 Ha         -33.86606994 eV

  Derived energy quantities:
  | Kinetic energy                :          -0.11765463 Ha          -3.20154530 eV
  | Electrostatic energy          :          -0.42998280 Ha         -11.70042743 eV
  | Energy correction for multipole
  | error in Hartree potential    :           0.00011856 Ha           0.00322616 eV
  | Sum of eigenvalues per atom                           :         -14.94290464 eV
  | Total energy (T->0) per atom                          :         -16.93303497 eV  <-- do not rely on this value for anything but (periodic) metals
  | Electronic free energy per atom                       :         -16.93303497 eV

  Self-consistency convergence accuracy:
  | Change of charge/spin density : 0.1244E+00 0.3000E+00
  | Change of sum of eigenvalues  : -.1622E+02 eV
  | Change of total energy        : -.9613E+01 eV

  End self-consistency iteration #     9       :  max(cpu_time)    wall_clock(cpu1)
  | Time for this iteration                    :        0.028 s           0.027 s
  | Charge density update                      :        0.007 s           0.006 s
  | Density mixing                             :        0.002 s           0.003 s
  | Hartree multipole update                   :        0.001 s           0.001 s
  | Hartree multipole summation                :        0.005 s           0.005 s
  | Integration                                :        0.009 s           0.009 s
  | Solution of K.-S. eqns.                    :        0.002 s           0.002 s
  | Total energy evaluation                    :        0.000 s           0.001 s
------------------------------------------------------------

------------------------------------------------------------
          Begin self-consistency iteration #   10

  Date     :  20220120, Time     :  153124.428
------------------------------------------------------------
  Evaluating new KS density.
  Integration grid: deviation in total charge (<rho> - N_e) =   4.348999E-08
  | <rho_up-rho_dn> = N_up-N_dn =     -0.7678; <|rho_up-rho_dn|> =      0.8039
  Pulay mixing of updated and previous charge densities.

  Evaluating partitioned Hartree potential by multipole expansion.
  | Analytical far-field extrapolation by fixed multipoles:
  | Hartree multipole sum: apparent total charge =  -0.493932E-05
  Summing up the Hartree potential.
  Time summed over all CPUs for potential: real work        0.034 s, elapsed        0.036 s
  | RMS charge density error from multipole expansion :   0.659172E-02

  Integrating Hamiltonian matrix: batch-based integration.
  Time summed over all CPUs for integration: real work        0.069 s, elapsed        0.074 s

  Updating Kohn-Sham eigenvalues, eigenvectors, occupation numbers, and Fermi level.
  Solving generalized eigenproblem
  Solving real symmetric generalised eigenvalue problem by standard ScaLAPACK.
  Using Cholesky factor for transformation
  Using 1-stage real ELPA solver
  Solving real symmetric generalised eigenvalue problem by standard ScaLAPACK.
  Using Cholesky factor for transformation
  Using 1-stage real ELPA solver
  Determining occupation numbers for Kohn-Sham eigenstates.
  | Chemical potential (Fermi level) in eV                 : -.17698753E+02
  | Error in electron count due to remaining E_F inaccuracy: 0.00000000E+00
  | Maximum occupation number of highest empty state:  0.00E+00

  Current spin moment of the entire structure :
  | N = N_up - N_down :    0.00
  | S                 :    0.00
  | J                 :    1.00

  Highest occupied state (VBM) at    -19.78802097 eV
  | Occupation number:      1.00000000
  | Spin channel:        2

  Lowest unoccupied state (CBM) at    -4.39889830 eV
  | Occupation number:      0.00000000
  | Spin channel:        1

  Overall HOMO-LUMO gap:     15.38912267 eV.

  Total energy components:
  | Sum of eigenvalues            :          -1.47377534 Ha         -40.10346747 eV
  | XC energy correction          :          -0.88473026 Ha         -24.07473542 eV
  | XC potential correction       :           1.13802993 Ha          30.96737007 eV
  | Free-atom electrostatic energy:          -0.42540601 Ha         -11.57588638 eV
  | Hartree energy correction     :          -0.10225130 Ha          -2.78239934 eV
  | van der Waals energy corr.    :           0.00000000 Ha           0.00000000 eV
  | Entropy correction            :           0.00000000 Ha           0.00000000 eV
  | ---------------------------
  | Total energy                  :          -1.74813297 Ha         -47.56911853 eV
  | Total energy, T -> 0          :          -1.74813297 Ha         -47.56911853 eV  <-- do not rely on this value for anything but (periodic) metals
  | Electronic free energy        :          -1.74813297 Ha         -47.56911853 eV

  Derived energy quantities:
  | Kinetic energy                :          -1.31445944 Ha         -35.76826134 eV
  | Electrostatic energy          :           0.45105673 Ha          12.27387823 eV
  | Energy correction for multipole
  | error in Hartree potential    :           0.00036742 Ha           0.00999811 eV
  | Sum of eigenvalues per atom                           :         -20.05173373 eV
  | Total energy (T->0) per atom                          :         -23.78455927 eV  <-- do not rely on this value for anything but (periodic) metals
  | Electronic free energy per atom                       :         -23.78455927 eV

  Self-consistency convergence accuracy:
  | Change of charge/spin density : 0.5695E+00 0.1713E+00
  | Change of sum of eigenvalues  : -.1022E+02 eV
  | Change of total energy        : -.1370E+02 eV

  End self-consistency iteration #    10       :  max(cpu_time)    wall_clock(cpu1)
  | Time for this iteration                    :        0.027 s           0.026 s
  | Charge density update                      :        0.007 s           0.006 s
  | Density mixing                             :        0.002 s           0.002 s
  | Hartree multipole update                   :        0.001 s           0.001 s
  | Hartree multipole summation                :        0.005 s           0.005 s
  | Integration                                :        0.009 s           0.009 s
  | Solution of K.-S. eqns.                    :        0.001 s           0.002 s
  | Total energy evaluation                    :        0.000 s           0.001 s
------------------------------------------------------------

------------------------------------------------------------
          Begin self-consistency iteration #   11

  Date     :  20220120, Time     :  153124.459
------------------------------------------------------------
  Evaluating new KS density.
  Integration grid: deviation in total charge (<rho> - N_e) =   6.776141E-09
  | <rho_up-rho_dn> = N_up-N_dn =      0.0146; <|rho_up-rho_dn|> =      0.9402
  Pulay mixing of updated and previous charge densities.

  Evaluating partitioned Hartree potential by multipole expansion.
  | Analytical far-field extrapolation by fixed multipoles:
  | Hartree multipole sum: apparent total charge =  -0.490571E-05
  Summing up the Hartree potential.
  Time summed over all CPUs for potential: real work        0.034 s, elapsed        0.035 s
  | RMS charge density error from multipole expansion :   0.496247E-02

  Integrating Hamiltonian matrix: batch-based integration.
  Time summed over all CPUs for integration: real work        0.072 s, elapsed        0.077 s

  Updating Kohn-Sham eigenvalues, eigenvectors, occupation numbers, and Fermi level.
  Solving generalized eigenproblem
  Solving real symmetric generalised eigenvalue problem by standard ScaLAPACK.
  Using Cholesky factor for transformation
  Using 1-stage real ELPA solver
  Solving real symmetric generalised eigenvalue problem by standard ScaLAPACK.
  Using Cholesky factor for transformation
  Using 1-stage real ELPA solver
  Determining occupation numbers for Kohn-Sham eigenstates.
  | Chemical potential (Fermi level) in eV                 : -.16483647E+02
  | Error in electron count due to remaining E_F inaccuracy: 0.00000000E+00
  | Maximum occupation number of highest empty state:  0.00E+00

  Current spin moment of the entire structure :
  | N = N_up - N_down :    0.00
  | S                 :    0.00
  | J                 :    1.00

  Highest occupied state (VBM) at    -18.40848817 eV
  | Occupation number:      1.00000000
  | Spin channel:        2

  Lowest unoccupied state (CBM) at    -4.43819375 eV
  | Occupation number:      0.00000000
  | Spin channel:        1

  Overall HOMO-LUMO gap:     13.97029443 eV.

  Total energy components:
  | Sum of eigenvalues            :          -1.37303127 Ha         -37.36208173 eV
  | XC energy correction          :          -0.73096538 Ha         -19.89057996 eV
  | XC potential correction       :           0.93959388 Ha          25.56765030 eV
  | Free-atom electrostatic energy:          -0.42540601 Ha         -11.57588638 eV
  | Hartree energy correction     :           0.08220799 Ha           2.23699333 eV
  | van der Waals energy corr.    :           0.00000000 Ha           0.00000000 eV
  | Entropy correction            :           0.00000000 Ha           0.00000000 eV
  | ---------------------------
  | Total energy                  :          -1.50760078 Ha         -41.02390444 eV
  | Total energy, T -> 0          :          -1.50760078 Ha         -41.02390444 eV  <-- do not rely on this value for anything but (periodic) metals
  | Electronic free energy        :          -1.50760078 Ha         -41.02390444 eV

  Derived energy quantities:
  | Kinetic energy                :          -0.99230057 Ha         -27.00187248 eV
  | Electrostatic energy          :           0.21566518 Ha           5.86854800 eV
  | Energy correction for multipole
  | error in Hartree potential    :           0.00057848 Ha           0.01574122 eV
  | Sum of eigenvalues per atom                           :         -18.68104086 eV
  | Total energy (T->0) per atom                          :         -20.51195222 eV  <-- do not rely on this value for anything but (periodic) metals
  | Electronic free energy per atom                       :         -20.51195222 eV

[...]
  | Change of sum of eigenvalues  : 0.2010E-03 eV
  | Change of total energy        : -.3486E-08 eV

  End self-consistency iteration #    26       :  max(cpu_time)    wall_clock(cpu1)
  | Time for this iteration                    :        0.027 s           0.026 s
  | Charge density update                      :        0.007 s           0.006 s
  | Density mixing                             :        0.002 s           0.002 s
  | Hartree multipole update                   :        0.001 s           0.001 s
  | Hartree multipole summation                :        0.005 s           0.005 s
  | Integration                                :        0.010 s           0.010 s
  | Solution of K.-S. eqns.                    :        0.001 s           0.001 s
  | Total energy evaluation                    :        0.000 s           0.000 s
------------------------------------------------------------

------------------------------------------------------------
          Begin self-consistency iteration #   27

  Date     :  20220120, Time     :  153124.939
------------------------------------------------------------
  Evaluating new KS density.
  Integration grid: deviation in total charge (<rho> - N_e) =  -6.719070E-13
  | <rho_up-rho_dn> = N_up-N_dn =     -0.0000; <|rho_up-rho_dn|> =      0.0000
  Pulay mixing of updated and previous charge densities.

  Evaluating partitioned Hartree potential by multipole expansion.
  | Analytical far-field extrapolation by fixed multipoles:
  | Hartree multipole sum: apparent total charge =   0.192479E-06
  Summing up the Hartree potential.
  Time summed over all CPUs for potential: real work        0.033 s, elapsed        0.034 s
  | RMS charge density error from multipole expansion :   0.928387E-03

  Integrating Hamiltonian matrix: batch-based integration.
  Time summed over all CPUs for integration: real work        0.075 s, elapsed        0.078 s

  Updating Kohn-Sham eigenvalues, eigenvectors, occupation numbers, and Fermi level.
  Solving generalized eigenproblem
  Solving real symmetric generalised eigenvalue problem by standard ScaLAPACK.
  Using Cholesky factor for transformation
  Using 1-stage real ELPA solver
  Solving real symmetric generalised eigenvalue problem by standard ScaLAPACK.
  Using Cholesky factor for transformation
  Using 1-stage real ELPA solver
  Determining occupation numbers for Kohn-Sham eigenstates.
  | Chemical potential (Fermi level) in eV                 : -.82113306E+01
  | Error in electron count due to remaining E_F inaccuracy: 0.00000000E+00
  | Maximum occupation number of highest empty state:  0.00E+00

  Current spin moment of the entire structure :
  | N = N_up - N_down :    0.00
  | S                 :    0.00
  | J                 :    1.00

  Highest occupied state (VBM) at     -9.77134090 eV
  | Occupation number:      1.00000000
  | Spin channel:        1

  Lowest unoccupied state (CBM) at    -0.06831625 eV
  | Occupation number:      0.00000000
  | Spin channel:        1

  Overall HOMO-LUMO gap:      9.70302465 eV.

  Total energy components:
  | Sum of eigenvalues            :          -0.71818036 Ha         -19.54268181 eV
  | XC energy correction          :          -0.65059481 Ha         -17.70358541 eV
  | XC potential correction       :           0.83518388 Ha          22.72650971 eV
  | Free-atom electrostatic energy:          -0.42540601 Ha         -11.57588638 eV
  | Hartree energy correction     :          -0.19949686 Ha          -5.42858574 eV
  | van der Waals energy corr.    :           0.00000000 Ha           0.00000000 eV
  | Entropy correction            :           0.00000000 Ha           0.00000000 eV
  | ---------------------------
  | Total energy                  :          -1.15849415 Ha         -31.52422963 eV
  | Total energy, T -> 0          :          -1.15849415 Ha         -31.52422963 eV  <-- do not rely on this value for anything but (periodic) metals
  | Electronic free energy        :          -1.15849415 Ha         -31.52422963 eV

  Derived energy quantities:
  | Kinetic energy                :           1.02679414 Ha          27.94049027 eV
  | Electrostatic energy          :          -1.53469348 Ha         -41.76113449 eV
  | Energy correction for multipole
  | error in Hartree potential    :          -0.00009573 Ha          -0.00260485 eV
  | Sum of eigenvalues per atom                           :          -9.77134090 eV
  | Total energy (T->0) per atom                          :         -15.76211482 eV  <-- do not rely on this value for anything but (periodic) metals
  | Electronic free energy per atom                       :         -15.76211482 eV

  Self-consistency convergence accuracy:
  | Change of charge/spin density : 0.1225E-05 0.5187E-06
  | Change of sum of eigenvalues  : -.3115E-04 eV
  | Change of total energy        : -.8523E-09 eV

  End self-consistency iteration #    27       :  max(cpu_time)    wall_clock(cpu1)
  | Time for this iteration                    :        0.028 s           0.026 s
  | Charge density update                      :        0.007 s           0.006 s
  | Density mixing                             :        0.002 s           0.002 s
  | Hartree multipole update                   :        0.001 s           0.001 s
  | Hartree multipole summation                :        0.005 s           0.005 s
  | Integration                                :        0.010 s           0.010 s
  | Solution of K.-S. eqns.                    :        0.001 s           0.001 s
  | Total energy evaluation                    :        0.000 s           0.000 s
------------------------------------------------------------

------------------------------------------------------------
          Begin self-consistency iteration #   28

  Date     :  20220120, Time     :  153124.969
------------------------------------------------------------
  Evaluating new KS density.
  Integration grid: deviation in total charge (<rho> - N_e) =  -3.124168E-13
  | <rho_up-rho_dn> = N_up-N_dn =     -0.0000; <|rho_up-rho_dn|> =      0.0000
  Pulay mixing of updated and previous charge densities.

  Evaluating partitioned Hartree potential by multipole expansion.
  | Analytical far-field extrapolation by fixed multipoles:
  | Hartree multipole sum: apparent total charge =   0.192467E-06
  Summing up the Hartree potential.
  Time summed over all CPUs for potential: real work        0.034 s, elapsed        0.034 s
  | RMS charge density error from multipole expansion :   0.928386E-03

  Integrating Hamiltonian matrix: batch-based integration.
  Time summed over all CPUs for integration: real work        0.075 s, elapsed        0.078 s

  Updating Kohn-Sham eigenvalues, eigenvectors, occupation numbers, and Fermi level.
  Solving generalized eigenproblem
  Solving real symmetric generalised eigenvalue problem by standard ScaLAPACK.
  Using Cholesky factor for transformation
  Using 1-stage real ELPA solver
  Solving real symmetric generalised eigenvalue problem by standard ScaLAPACK.
  Using Cholesky factor for transformation
  Using 1-stage real ELPA solver
  Determining occupation numbers for Kohn-Sham eigenstates.
  | Chemical potential (Fermi level) in eV                 : -.82111671E+01
  | Error in electron count due to remaining E_F inaccuracy: 0.00000000E+00
  | Maximum occupation number of highest empty state:  0.00E+00

  Current spin moment of the entire structure :
  | N = N_up - N_down :    0.00
  | S                 :    0.00
  | J                 :    1.00

  Highest occupied state (VBM) at     -9.77134149 eV
  | Occupation number:      1.00000000
  | Spin channel:        1

  Lowest unoccupied state (CBM) at    -0.06831663 eV
  | Occupation number:      0.00000000
  | Spin channel:        1

  Overall HOMO-LUMO gap:      9.70302485 eV.

  Total energy components:
  | Sum of eigenvalues            :          -0.71818040 Ha         -19.54268304 eV
  | XC energy correction          :          -0.65059478 Ha         -17.70358475 eV
  | XC potential correction       :           0.83518385 Ha          22.72650889 eV
  | Free-atom electrostatic energy:          -0.42540601 Ha         -11.57588638 eV
  | Hartree energy correction     :          -0.19949681 Ha          -5.42858435 eV
  | van der Waals energy corr.    :           0.00000000 Ha           0.00000000 eV
  | Entropy correction            :           0.00000000 Ha           0.00000000 eV
  | ---------------------------
  | Total energy                  :          -1.15849415 Ha         -31.52422963 eV
  | Total energy, T -> 0          :          -1.15849415 Ha         -31.52422963 eV  <-- do not rely on this value for anything but (periodic) metals
  | Electronic free energy        :          -1.15849415 Ha         -31.52422963 eV

  Derived energy quantities:
  | Kinetic energy                :           1.02679404 Ha          27.94048750 eV
  | Electrostatic energy          :          -1.53469341 Ha         -41.76113238 eV
  | Energy correction for multipole
  | error in Hartree potential    :          -0.00009573 Ha          -0.00260488 eV
  | Sum of eigenvalues per atom                           :          -9.77134152 eV
  | Total energy (T->0) per atom                          :         -15.76211482 eV  <-- do not rely on this value for anything but (periodic) metals
  | Electronic free energy per atom                       :         -15.76211482 eV

  Self-consistency convergence accuracy:
  | Change of charge/spin density : 0.2137E-06 0.1256E-06
  | Change of sum of eigenvalues  : -.1238E-05 eV
  | Change of total energy        : -.1863E-09 eV

  Writing Kohn-Sham eigenvalues.

  Spin-up eigenvalues:

  State    Occupation    Eigenvalue [Ha]    Eigenvalue [eV]
      1       1.00000          -0.359090           -9.77134
      2       0.00000          -0.002511           -0.06832
      3       0.00000           0.046720            1.27130
      4       0.00000           0.142006            3.86419
      5       0.00000           0.308971            8.40752
      6       0.00000           0.308971            8.40752
      7       0.00000           0.377134           10.26233
      8       0.00000           0.515049           14.01519
      9       0.00000           0.703663           19.14765
     10       0.00000           0.730324           19.87313
     11       0.00000           0.730324           19.87313

  Spin-down eigenvalues:

  State    Occupation    Eigenvalue [Ha]    Eigenvalue [eV]
      1       1.00000          -0.359090           -9.77134
      2       0.00000          -0.002510           -0.06831
      3       0.00000           0.046720            1.27131
      4       0.00000           0.142006            3.86419
      5       0.00000           0.308971            8.40752
      6       0.00000           0.308971            8.40752
      7       0.00000           0.377134           10.26233
      8       0.00000           0.515049           14.01519
      9       0.00000           0.703663           19.14765
     10       0.00000           0.730324           19.87313
     11       0.00000           0.730324           19.87313

  Current spin moment of the entire structure :
  | N = N_up - N_down :    0.00
  | S                 :    0.00
  | J                 :    1.00

  Highest occupied state (VBM) at     -9.77134149 eV
  | Occupation number:      1.00000000
  | Spin channel:        1

  Lowest unoccupied state (CBM) at    -0.06831663 eV
  | Occupation number:      0.00000000
  | Spin channel:        1

  Overall HOMO-LUMO gap:      9.70302485 eV.

  Self-consistency cycle converged.

  End self-consistency iteration #    28       :  max(cpu_time)    wall_clock(cpu1)
  | Time for this iteration                    :        0.027 s           0.028 s
  | Charge density update                      :        0.007 s           0.006 s
  | Density mixing                             :        0.002 s           0.002 s
  | Hartree multipole update                   :        0.001 s           0.001 s
  | Hartree multipole summation                :        0.005 s           0.005 s
  | Integration                                :        0.010 s           0.010 s
  | Solution of K.-S. eqns.                    :        0.001 s           0.001 s
  | Total energy evaluation                    :        0.000 s           0.000 s
------------------------------------------------------------
  Obtaining max. number of non-zero basis functions in each batch .
  Evaluating KS electron density on previously omitted grid points.
  Evaluating non-empirical van der Waals correction (Tkatchenko/Scheffler 2009).
  Performing Hirshfeld analysis of fragment charges and moments.
  ----------------------------------------------------------------------
  | Atom     1: H
  |   Hirshfeld charge        :     -0.00000040
  |   Free atom volume        :     10.31539447
  |   Hirshfeld volume        :      6.00752798
  |   Hirshfeld spin moment   :      0.00000017
  |   Hirshfeld dipole vector :      0.00000000      -0.00000000      -0.08762250
  |   Hirshfeld dipole moment :      0.08762250
  |   Hirshfeld second moments:      0.09994874       0.00000000       0.00000000
  |                                  0.00000000       0.09994874       0.00000000
  |                                  0.00000000       0.00000000       0.10189095
  ----------------------------------------------------------------------
  | Atom     2: H
  |   Hirshfeld charge        :     -0.00000040
  |   Free atom volume        :     10.31539447
  |   Hirshfeld volume        :      6.00752798
  |   Hirshfeld spin moment   :      0.00000017
  |   Hirshfeld dipole vector :      0.00000000       0.00000000       0.08762250
  |   Hirshfeld dipole moment :      0.08762250
  |   Hirshfeld second moments:      0.09994874       0.00000000       0.00000000
  |                                  0.00000000       0.09994874       0.00000000
  |                                  0.00000000       0.00000000       0.10189095
  ----------------------------------------------------------------------


  Total energy components:
  | Sum of eigenvalues            :          -0.71818040 Ha         -19.54268304 eV
  | XC energy correction          :          -0.65059478 Ha         -17.70358475 eV
  | XC potential correction       :           0.83518385 Ha          22.72650889 eV
  | Free-atom electrostatic energy:          -0.42540601 Ha         -11.57588638 eV
  | Hartree energy correction     :          -0.19949681 Ha          -5.42858435 eV
  | van der Waals energy corr.    :          -0.00000020 Ha          -0.00000543 eV
  | Entropy correction            :           0.00000000 Ha           0.00000000 eV
  | ---------------------------
  | Total energy                  :          -1.15849434 Ha         -31.52423506 eV
  | Total energy, T -> 0          :          -1.15849434 Ha         -31.52423506 eV  <-- do not rely on this value for anything but (periodic) metals
  | Electronic free energy        :          -1.15849434 Ha         -31.52423506 eV

  Derived energy quantities:
  | Kinetic energy                :           1.02679404 Ha          27.94048750 eV
  | Electrostatic energy          :          -1.53469341 Ha         -41.76113238 eV
  | Energy correction for multipole
  | error in Hartree potential    :          -0.00009573 Ha          -0.00260488 eV
  | Sum of eigenvalues per atom                           :          -9.77134152 eV
  | Total energy (T->0) per atom                          :         -15.76211753 eV  <-- do not rely on this value for anything but (periodic) metals
  | Electronic free energy per atom                       :         -15.76211753 eV
  Timings for VdW correction (Tkatchenko-Scheffler 2009 or later):
  | CPU time:        0.003 s, Wall clock time:        0.004 s.

  Energy and forces in a compact form:
  | Total energy uncorrected      :         -0.315242350628655E+02 eV
  | Total energy corrected        :         -0.315242350628655E+02 eV  <-- do not rely on this value for anything but (periodic) metals
  | Electronic free energy        :         -0.315242350628655E+02 eV

  ------------------------------------ 
  Start decomposition of the XC Energy 
  ------------------------------------ 
  Hartree-Fock part   :          0.000000000 Ha              0.000000000 eV
  ------------------------------------ 
  X Energy            :         -0.608453562 Ha            -16.556863819 eV
  C Energy GGA        :         -0.042141220 Ha             -1.146720930 eV
  Total XC Energy     :         -0.650594781 Ha            -17.703584749 eV
  LDA X and C from self-consistent density 
  X Energy LDA        :         -0.531160915 Ha            -14.453623885 eV
  C Energy LDA        :         -0.091990146 Ha             -2.503179224 eV
  ------------------------------------ 
  End decomposition of the XC Energy 
  ------------------------------------ 

------------------------------------------------------------------------------
  Final output of selected total energy values:

  The following output summarizes some interesting total energy values
  at the end of a run (AFTER all relaxation, molecular dynamics, etc.).

  | Total energy of the DFT / Hartree-Fock s.c.f. calculation      :            -31.524235063 eV
  | Final zero-broadening corrected energy (caution - metals only) :            -31.524235063 eV
  | For reference only, the value of 1 Hartree used in FHI-aims is :             27.211384500 eV

  Before relying on these values, please be sure to understand exactly which
  total energy value is referred to by a given number. Different objects may
  all carry the same name 'total energy'. Definitions:

  Total energy of the DFT / Hartree-Fock s.c.f. calculation:
  | Note that this energy does not include ANY quantities calculated after the
  | s.c.f. cycle, in particular not ANY RPA, MP2, etc. many-body perturbation terms.

  Final zero-broadening corrected energy:
  | For metallic systems only, a broadening of the occupation numbers at the Fermi
  | level can be extrapolated back to zero broadening by an electron-gas inspired
  | formula. For all systems that are not real metals, this value can be
  | meaningless and should be avoided.

------------------------------------------------------------------------------

------------------------------------------------------------
          Leaving FHI-aims.
          Date     :  20220120, Time     :  153125.006

          Computational steps:
          | Number of self-consistency cycles          :           28

          Detailed time accounting                     :  max(cpu_time)    wall_clock(cpu1)
          | Total time                                 :        0.959 s           1.044 s
          | Preparation time                           :        0.078 s           0.080 s
          | Grid partitioning                          :        0.008 s           0.008 s
          | Preloading free-atom quantities on grid    :        0.004 s           0.003 s
          | Free-atom superposition energy             :        0.003 s           0.003 s
          | Total time for integrations                :        0.283 s           0.280 s
          | Total time for solution of K.-S. equations :        0.049 s           0.056 s
          | Total time for density update              :        0.202 s           0.179 s
          | Total time for mixing                      :        0.051 s           0.052 s
          | Total time for Hartree multipole update    :        0.038 s           0.035 s
          | Total time for Hartree multipole sum       :        0.133 s           0.138 s
          | Total time for total energy evaluation     :        0.005 s           0.016 s
          | Total time for scaled ZORA corrections     :        0.000 s           0.000 s
          | Total time for vdW correction              :        0.003 s           0.004 s

          Have a nice day.
------------------------------------------------------------
