  MPI-parallelism will be employed.
------------------------------------------------------------
          Invoking FHI-aims ...
          Version 052014
          Git rev. (modified): 096c982 Merge branch master of fhiaims:/pub/localo[...]
          Compiled on 2016/12/16 at 15:22:01 on host login02.hpc.iitd.ac.in.

          When using FHI-aims, please cite the following reference:

          Volker Blum, Ralf Gehrke, Felix Hanke, Paula Havu,
          Ville Havu, Xinguo Ren, Karsten Reuter, and Matthias Scheffler,
          'Ab Initio Molecular Simulations with Numeric Atom-Centered Orbitals: FHI-aims',
          Computer Physics Communications 180, 2175-2196 (2009)

          For any questions about FHI-aims, please visit the aimsclub website
          with its forums and wiki. Contributions to both the forums and the
          wiki are warmly encouraged - they are for you, and everyone is welcome there.

------------------------------------------------------------

  Date     :  20220221, Time     :  151718.132
  Time zero on CPU 1             :   0.178350000000000E-01  s.
  Internal wall clock time zero  :           414688638.132  s.

  Using        8 parallel tasks.
  Task        0 on host csky078 reporting.
  Task        1 on host csky078 reporting.
  Task        2 on host csky078 reporting.
  Task        3 on host csky078 reporting.
  Task        4 on host csky078 reporting.
  Task        5 on host csky078 reporting.
  Task        6 on host csky078 reporting.
  Task        7 on host csky078 reporting.

  Performing system and environment tests:
  | Environment variable OMP_NUM_THREADS correctly set to 1.
  | Stacksize not measured: no C compiler
  | Checking for scalapack...
  | Testing pdtran()...
  | All pdtran() tests passed.

  Obtaining array dimensions for all initial allocations:
  
  -----------------------------------------------------------------------
  Parsing control.in (first pass over file, find array dimensions only).
  The contents of control.in will be repeated verbatim below
  unless switched off by setting 'verbatim_writeout .false.' .
  in the first line of control.in .
  -----------------------------------------------------------------------
  
    xc               pbe
    spin             collinear
    default_initial_moment hund
    relativistic     atomic_zora scalar 1e-9
    occupation_type  gaussian 0.001
    charge	0
    vdw_correction_hirshfeld
    KS_method        scalapack_fast
    mixer            pulay
    charge_mix_param  0.4
    spin_mix_param    0.6
    sc_accuracy_rho  1E-4
    sc_accuracy_eev  1E-5
    sc_accuracy_etot 1E-5
    sc_iter_limit    100
    empty_states     5
    ####### keywords for DOS########
    k_grid  11 11 1
  ##########################
  #  relax_geometry trm 5E-5
  #  sc_accuracy_forces 1e-6
  ##########################
    output dos -20 20 10000 0.01
    dos_kgrid_factors 2 2 1
  
  ################################################################################
  #
  #  FHI-aims code project
  # Volker Blum, Fritz Haber Institute Berlin, 2009
  #
  #  Suggested "tight" defaults for C atom (to be pasted into control.in file)
  #
  ################################################################################
    species        C
  #     global species definitions
      nucleus             6
      mass                12.0107
  #
      l_hartree           6
  #
      cut_pot             4.0  2.0  1.0
      basis_dep_cutoff    1e-4
  #
      radial_base         34 7.0
      radial_multiplier   2
      angular_grids specified
        division   0.2187   50
        division   0.4416  110
        division   0.6335  194
        division   0.7727  302
        division   0.8772  434
  #      division   0.9334  590
  #      division   0.9924  770
  #      division   1.0230  974
  #      division   1.5020 1202
  #     outer_grid  974
        outer_grid  434
  ################################################################################
  #
  #  Definition of "minimal" basis
  #
  ################################################################################
  #     valence basis states
      valence      2  s   2.
      valence      2  p   2.
  #     ion occupancy
      ion_occ      2  s   1.
      ion_occ      2  p   1.
  ################################################################################
  #
  #  Suggested additional basis functions. For production calculations,
  #  uncomment them one after another (the most important basis functions are
  #  listed first).
  #
  #  Constructed for dimers: 1.0 A, 1.25 A, 1.5 A, 2.0 A, 3.0 A
  #
  ################################################################################
  #  "First tier" - improvements: -1214.57 meV to -155.61 meV
       hydro 2 p 1.7
       hydro 3 d 6
       hydro 2 s 4.9
  #  "Second tier" - improvements: -67.75 meV to -5.23 meV
       hydro 4 f 9.8
       hydro 3 p 5.2
       hydro 3 s 4.3
       hydro 5 g 14.4
       hydro 3 d 6.2
  #  "Third tier" - improvements: -2.43 meV to -0.60 meV
  #     hydro 2 p 5.6
  #     hydro 2 s 1.4
  #     hydro 3 d 4.9
  #     hydro 4 f 11.2
  #  "Fourth tier" - improvements: -0.39 meV to -0.18 meV
  #     hydro 2 p 2.1
  #     hydro 5 g 16.4
  #     hydro 4 d 13.2
  #     hydro 3 s 13.6
  #     hydro 4 f 17.6
  #  Further basis functions - improvements: -0.08 meV and below
  #     hydro 3 s 2
  #     hydro 3 p 6
  #     hydro 4 d 20
  ################################################################################
  #
  # For methods that use the localized form of the "resolution of identity" for
  # the two-electron Coulomb operator (RI_method LVL), particularly Hartree-Fock and
  # hybrid density functional calculations, the highest accuracy can be obtained by
  # uncommenting the line beginning with "for_aux"  below, thus adding an extra g radial
  # function to the construction of the product basis set for the expansion.
  # See Ref. New J. Phys. 17, 093020 (2015) for more information, particularly Figs. 1 and 6.
  #
  ################################################################################
  #
  # for_aux hydro 5 g 6.0
  
  -----------------------------------------------------------------------
  Completed first pass over input file control.in .
  -----------------------------------------------------------------------
  
  
  -----------------------------------------------------------------------
  Parsing geometry.in (first pass over file, find array dimensions only).
  The contents of geometry.in will be repeated verbatim below
  unless switched off by setting 'verbatim_writeout .false.' .
  in the first line of geometry.in .
  -----------------------------------------------------------------------
  
  lattice_vector   2.1304216  -1.2299995   0.0000000
  lattice_vector   0.0000000   2.4599989   0.0000000
  lattice_vector   0.0000000   0.0000000   6.8000000
  
  atom_frac                      -0.666667  -0.333333   0.500000  C
  atom_frac                       0.666667   0.333333   0.500000  C
  
  
  -----------------------------------------------------------------------
  Completed first pass over input file geometry.in .
  -----------------------------------------------------------------------
  

  Basic array size parameters:
  | Number of species                 :        1
  | Number of atoms                   :        2
  | Number of lattice vectors         :        3
  | Max. basis fn. angular momentum   :        4
  | Max. atomic/ionic basis occupied n:        2
  | Max. number of basis fn. types    :        2
  | Max. radial fns per species/type  :        8
  | Max. logarithmic grid size        :     1277
  | Max. radial integration grid size :       69
  | Max. angular integration grid size:      434
  | Max. angular grid division number :        8
  | Radial grid for Hartree potential :     1277
  | Number of spin channels           :        2

------------------------------------------------------------
          Reading file control.in.
------------------------------------------------------------
  XC: Using PBE gradient-corrected functionals.
  Spin treatment: Spin density functional theory - collinear spins.
  Initial spin moment per atom set according to Hund's rules.
  Scalar relativistic treatment of kinetic energy: on-site free-atom approximation to ZORA.
  Occupation type: Gaussian broadening, width =   0.100000E-02 eV.
  Charge =   0.000000E+00: Neutral system requested explicitly.
  Using non-empirical van der Waals correction (Hirshfeld partitioning):
  Kohn-Sham eigenvalues and eigenfunctions calculated by the ELPA eigensolver library.
  Using pulay charge density mixing.
  Charge density mixing - mixing parameter:     0.4000
  Spin density mixing - mixing parameter:     0.6000
  Convergence accuracy of self-consistent charge density: 0.1000E-03
  Convergence accuracy of sum of eigenvalues: 0.1000E-04
  Convergence accuracy of total energy: 0.1000E-04
  Maximum number of s.-c. iterations  :   100
  Number of empty states per atom:        5
  Found k-point grid:        11        11         1
  Calculating density of states with
  | energy interval :-20.000000 20.000000
  | points & broadening : 10000  0.010000
  Found k-point grid multipliers for perturbative DOS :         2         2         1
 
  Reading configuration options for species C                   .
  | Found nuclear charge :   6.0000
  | Found atomic mass :    12.0107000000000      amu
  | Found l_max for Hartree potential  :   6
  | Found cutoff potl. onset [A], width [A], scale factor :    4.00000    2.00000    1.00000
  | Threshold for basis-dependent cutoff potential is   0.100000E-03
  | Found data for basic radial integration grid :    34 points, outermost radius =    7.000 A
  | Found multiplier for basic radial grid :   2
  | Found angular grid specification: user-specified.
  | Specified grid contains     6 separate shells.
  | Check grid settings after all constraints further below.
  | Found free-atom valence shell :  2 s   2.000
  | Found free-atom valence shell :  2 p   2.000
  | No ionic wave fns used. Skipping ion_occ.
  | No ionic wave fns used. Skipping ion_occ.
  | Found hydrogenic basis function :  2 p   1.700
  | Found hydrogenic basis function :  3 d   6.000
  | Found hydrogenic basis function :  2 s   4.900
  | Found hydrogenic basis function :  4 f   9.800
  | Found hydrogenic basis function :  3 p   5.200
  | Found hydrogenic basis function :  3 s   4.300
  | Found hydrogenic basis function :  5 g  14.400
  | Found hydrogenic basis function :  3 d   6.200
  Species C                   : Missing cutoff potential type.
  Defaulting to exp(1/x)/(1-x)^2 type cutoff potential.
  Species C : No 'logarithmic' tag. Using default grid for free atom:
  | Default logarithmic grid data [bohr] : 0.1000E-03 0.1000E+03 0.1012E+01
  Species C : On-site basis accuracy parameter (for Gram-Schmidt orthonormalisation) not specified.
  Using default value basis_acc =  0.1000000E-03.
  Species C                   : Using default innermost maximum threshold i_radial=  2 for radial functions.
  Species C                   : Default cutoff onset for free atom density etc. : 0.40000000E+01 AA.
  Species C                   : Basic radial grid will be enhanced according to radial_multiplier =   2, to contain    69 grid points.
 
  Finished reading input file 'control.in'. Consistency checks are next.
 
  Target number of points in a grid batch is not set. Defaulting to  100
  Method for grid partitioning is not set. Defaulting to parallel hash+maxmin partitioning.
  Batch size limit is not set. Defaulting to    200
  By default, will store active basis functions for each batch.
  If in need of memory, prune_basis_once .false. can be used to disable this option.
  communication_type for Hartree potential was not specified.
  Defaulting to calc_hartree .
  Pulay mixer: Number of relevant iterations not set.
  Defaulting to    8 iterations.
  Pulay mixer: Number of initial linear mixing iterations not set.
  Defaulting to    0 iterations.
  Work space size for distributed Hartree potential not set.
  Defaulting to   0.200000E+03 MB.
  Algorithm-dependent basis array size parameters:
  | n_max_pulay                         :        8
  Calculation of forces was not defined in control.in. No forces will be calculated.
  Geometry relaxation not requested: no relaxation will be performed.
  No accuracy limit for integral partition fn. given. Defaulting to 0.1000E-14.
  No threshold value for u(r) in integrations given. Defaulting to 0.1000E-05.
  No accuracy for occupation numbers given. Defaulting to 0.1000E-07.
  No threshold value for occupation numbers given. Defaulting to 0.0000E+00.
  No accuracy for fermi level given. Defaulting to 0.1000E-19.
  Maximum # of iterations to find E_F not set. Defaulting to  200.
 * You have   121 k-points in your system, but only     8 MPI-tasks available.
 * In this case using ScaLAPACK is not necessary / supported.
 * Switching to default eigenvalue solver (lapack_fast) instead.
  Will not use alltoall communication since running on < 1024 CPUs.
  Threshold for basis singularities not set.
  Default threshold for basis singularities: 0.1000E-04
  partition_type (choice of integration weights) for integrals was not specified.
  | Using a version of the partition function of Stratmann and coworkers ('stratmann_smoother').
  | At each grid point, the set of atoms used to build the partition table is smoothly restricted to
  | only those atoms whose free-atom density would be non-zero at that grid point.
  Partitioning for Hartree potential was not defined. Using partition_type for integrals.
  | Adjusted default value of keyword multip_moments_threshold to:       0.10000000E-11
  | This value may affect high angular momentum components of the Hartree potential in periodic systems.
  Angular momentum expansion for Kerker preconditioner not set explicitly.
  | Using default value of   0
  No explicit requirement for turning off preconditioner.
  | By default, it will be turned off when the charge convergence reaches
  | sc_accuracy_rho  =   0.100000E-03
  | sc_accuracy_eev  =   0.100000E-04
  | sc_accuracy_etot =   0.100000E-04
  No special mixing parameter while Kerker preconditioner is on.
  Using default: charge_mix_param =     0.4000.
  No q(lm)/r^(l+1) cutoff set for long-range Hartree potential.
  | Using default value of  0.100000E-09 .
  | Verify using the multipole_threshold keyword.
  Defaulting to new monopole extrapolation.
  Density update method: automatic selection selected.
  Using density matrix based charge density update.
  Using density matrix based charge density update.
  Using packed matrix style: index .
  Defaulting to use time-reversal symmetry for k-point grid.
  Using the following vdw_convergence_threshold for supercell sums
  over the Tkatchenko-Scheffler correction: 0.100000E-04 eV.
------------------------------------------------------------


------------------------------------------------------------
          Reading geometry description geometry.in.
------------------------------------------------------------
  Input structure read successfully.
  The structure contains        2 atoms,  and a total of         12.000 electrons.

  Input geometry:
  | Unit cell:
  |         2.130422        -1.229999         0.000000
  |         0.000000         2.459999         0.000000
  |         0.000000         0.000000         6.800000
  | Atomic structure:
  |       Atom                x [A]            y [A]            z [A]
  |    1: Species C             -1.420282         0.000001         3.400000
  |    2: Species C              1.420282        -0.000001         3.400000
  |

  | The smallest distance between any two atoms is         1.42027960 AA.
  |
  | The first atom of this pair is atom number                      2 .
  | The second atom of this pair is atom number                     1 .
  | Wigner-Seitz cell of the first atom image           1     0     0 .
  | (The Wigner-Seitz cell of the second atom is 0 0 0  by definition.)

  Quantities derived from the lattice vectors:
  | Reciprocal lattice vector 1:  2.949268 -0.000000  0.000000
  | Reciprocal lattice vector 2:  1.474634  2.554142  0.000000
  | Reciprocal lattice vector 3:  0.000000  0.000000  0.923998
  | Unit cell volume                               :   0.356377E+02  A^3

  Initial moments and charges:
  |  Atom   Moment         Charge        Species
  |     1  (Hund's rule)   0.000000E+00   C
  |     2  (Hund's rule)   0.000000E+00   C

  Structure-dependent array size parameters: 
  | Number of distinct atom types in initial rho :        1
  | Maximum number of distinct radial functions  :       11
  | Maximum number of basis functions            :       78
  | Number of Kohn-Sham states (occupied + empty):       11
------------------------------------------------------------

------------------------------------------------------------
          Preparing all fixed parts of the calculation.
------------------------------------------------------------
  Determining machine precision:
    2.225073858507201E-308
  Setting up grids for atomic and cluster calculations.

  Creating wave function, potential, and density for free atoms.

  Species: C

  List of occupied orbitals and eigenvalues:
    n    l              occ      energy [Ha]    energy [eV]
    1    0           2.0000       -10.049212      -273.4530
    2    0           2.0000        -0.504761       -13.7352
    2    1           2.0000        -0.193631        -5.2690

  Spin-polarized or charged system:
  Charge density initialized according to selected moments and charges.

  Creating spin-polarized density from free atoms.

  Species: C
  Charge:   0.000000
  applying Hund's rules ...

  List of occupied orbitals and eigenvalues:
    n    l      energy [Ha]    energy [eV]    occupation
  Spin-up
    1    0       -10.040873      -273.2261     1.00000000
    2    0        -0.537730       -14.6324     1.00000000
    2    1        -0.223635        -6.0854     2.00000000
  Spin-down
    1    0       -10.011077      -272.4153     1.00000000
    2    0        -0.436278       -11.8717     1.00000000
    2    1        -0.132089        -3.5943     0.00000000

  Creating fixed part of basis set: Ionic, confined, hydrogenic.
 
  C                    hydrogenic:
 
  List of hydrogenic basis orbitals: 
    n    l      effective z      eigenvalue [eV]  inner max. [A]     outer max. [A]     outer radius [A]   
    2    1         1.700000        -9.8152           1.245706           1.245706           5.401630
    3    2         6.000000       -54.4226           0.792453           0.792453           4.178599
    2    0         4.900000       -81.6681           0.082559           0.562749           3.353238
    4    3         9.800000       -81.6681           0.863254           0.863254           4.028125
    3    1         5.200000       -40.8774           0.305389           1.215618           4.898362
    3    0         4.300000       -27.9508           0.091041           1.610311           5.401630
    5    4        14.400000      -112.8510           0.917666           0.917666           3.883070
    3    2         6.200000       -58.1113           0.763917           0.763917           4.077671
 

  Adding cutoff potential to free-atom effective potential.
  Creating atomic-like basis functions for current effective potential.

  Species C                   :

  List of atomic basis orbitals and eigenvalues:
    n    l      energy [Ha]    energy [eV]    outer radius [A]
    1    0       -10.049212      -273.4530       1.934409
    2    0        -0.504761       -13.7352       5.271162
    2    1        -0.193631        -5.2690       5.401630

  Assembling full basis from fixed parts.
  | Species C :   atomic orbital   1 s accepted.
  | Species C :    hydro orbital   2 s accepted.
  | Species C :   atomic orbital   2 s accepted.
  | Species C :    hydro orbital   3 s accepted.
  | Species C :    hydro orbital   3 p accepted.
  | Species C :   atomic orbital   2 p accepted.
  | Species C :    hydro orbital   2 p accepted.
  | Species C :    hydro orbital   3 d accepted.
  | Species C :    hydro orbital   3 d accepted.
  | Species C :    hydro orbital   4 f accepted.
  | Species C :    hydro orbital   5 g accepted.
 
  Basis size parameters after reduction:
  | Total number of radial functions:       11
  | Total number of basis functions :       78
 
  Testing on-site integration grid accuracy.
  |  Species  Function  <phi|h_atom|phi> (log., in eV)  <phi|h_atom|phi> (rad., in eV)
           1        1               -273.4529725981               -273.4529710451
           1        2                -10.7721037329                -10.7721022102
           1        3                 17.6044132585                 17.6044162052
           1        4                 53.7706460564                 53.7706913681
           1        5                 15.0973290351                 15.0973256011
           1        6                  3.8545134677                  3.8545724657
           1        7                 12.1156992586                 12.1182024423
           1        8                 29.4352039288                 29.4352041805
           1        9                 54.8741144697                 54.8740268719
           1       10                 59.3556032036                 59.3556031370
           1       11                 93.4551837140                 93.4551837996

  Preparing densities etc. for the partition functions (integrals / Hartree potential).

  Preparations completed.
  max(cpu_time)          :      0.166 s.
  Wall clock time (cpu1) :      0.170 s.
------------------------------------------------------------

------------------------------------------------------------
          Begin self-consistency loop: Initialization.

          Date     :  20220221, Time     :  151718.397
------------------------------------------------------------

  Initializing index lists of integration centers etc. from given atomic structure:
  Mapping all atomic coordinates to central unit cell.

  Initializing the k-points
          Using symmetry for reducing the k-points
  | k-points reduced from:      121 to       61
  | Number of k-points                             :        61
  The eigenvectors in the calculations are COMPLEX.
  | K-points in task   0:         7
  | K-points in task   1:         8
  | K-points in task   2:         8
  | K-points in task   3:         8
  | K-points in task   4:         8
  | K-points in task   5:         8
  | K-points in task   6:         7
  | K-points in task   7:         7
  | Number of basis functions in the Hamiltonian integrals :      3472
  | Number of basis functions in a single unit cell        :        78
  | Number of centers in hartree potential         :       646
  | Number of centers in hartree multipole         :       548
  | Number of centers in electron density summation:       428
  | Number of centers in basis integrals           :       456
  | Number of centers in integrals                 :       136
  | Consuming        223 KiB for k_phase.
  | Number of super-cells :                 234
  | Size of matrix packed + index :      284874
  Perform CPU consistency test for lattice for partition grid
  Perform CPU consistency test for map_to_center_cell_matrix for partition grid
  Partitioning the integration grid into batches with parallel hashing+maxmin method.
  | Number of batches:      496
  | Maximal batch size:     108
  | Minimal batch size:      50
  | Average batch size:      72.895
  | Standard deviation of batch sizes:      20.938

  Integration load balanced across     8 MPI tasks.
  Work distribution over tasks is as follows:
  Task     0 has       4522 integration points.
  Task     1 has       4521 integration points.
  Task     2 has       4485 integration points.
  Task     3 has       4502 integration points.
  Task     4 has       4502 integration points.
  Task     5 has       4538 integration points.
  Task     6 has       4549 integration points.
  Task     7 has       4537 integration points.
  Initializing partition tables, free-atom densities, potentials, etc. across the integration grid (initialize_grid_storage).
  | initialize_grid_storage: Actual outermost partition radius vs. multipole_radius_free
  | (-- VB: in principle, multipole_radius_free should be larger, hence this output)
  | Species        1: outer_partition_radius =              6.000000000000000 AA, multipole_radius_free =              6.029870734432609 AA.
  | Original list of interatomic distances with         456 x        456 entries is created.
  | Net number of integration points:    36156
  | of which are non-zero points    :    26826
  | Numerical average free-atom electrostatic potential    :     -6.92761138 eV
  Obtaining max. number of non-zero basis functions in each batch (get_n_compute_maxes).
  | Maximal number of non-zero basis functions:     1323 in task     0
  | Maximal number of non-zero basis functions:     1222 in task     1
  | Maximal number of non-zero basis functions:     1309 in task     2
  | Maximal number of non-zero basis functions:     1309 in task     3
  | Maximal number of non-zero basis functions:     1309 in task     4
  | Maximal number of non-zero basis functions:     1309 in task     5
  | Maximal number of non-zero basis functions:     1318 in task     6
  | Maximal number of non-zero basis functions:     1309 in task     7
  Integrating Hamiltonian matrix: batch-based integration.
  Time summed over all CPUs for integration: real work       16.575 s, elapsed       18.056 s
  Integrating overlap matrix.
  Time summed over all CPUs for integration: real work        6.822 s, elapsed        7.653 s
  Decreasing sparse matrix size:
   Tolerance:  9.999999824516700E-014
   Hamiltonian matrix
  | Array has   179225 nonzero elements out of   284874 elements
  | Sparsity factor is 0.371
   Overlap matrix
  | Array has   161147 nonzero elements out of   284874 elements
  | Sparsity factor is 0.434
  New size of hamiltonian matrix:      180040

  Updating Kohn-Sham eigenvalues, eigenvectors, occupation numbers, and Fermi level.
  Solving generalized eigenproblem
  Transforming overlap matrix and checking for singularities.
  Overlap matrix is nonsingular at first k-point:
  | Lowest eigenvalue:  0.153553E-03
  Determining occupation numbers for Kohn-Sham eigenstates.
  | Chemical potential (Fermi level) in eV                 : -.80844974E+01
  | Error in electron count due to remaining E_F inaccuracy: -.39079850E-13
  | Maximum occupation number of highest empty state:  0.00E+00

  Writing Kohn-Sham eigenvalues.

  Spin-up eigenvalues:
  K-point:       1 at    0.000000    0.000000    0.000000 (in units of recip. lattice)

  State    Occupation    Eigenvalue [Ha]    Eigenvalue [eV]
      1       1.00000         -10.181848         -277.06218
      2       1.00000         -10.180882         -277.03589
      3       1.00000          -1.102207          -29.99257
      4       1.00000          -0.620114          -16.87417
      5       1.00000          -0.528020          -14.36816
      6       1.00000          -0.528017          -14.36806
      7       0.00000          -0.085400           -2.32384
      8       0.00000          -0.085394           -2.32369
      9       0.00000          -0.024009           -0.65332
     10       0.00000           0.040709            1.10776
     11       0.00000           0.048401            1.31707

  Spin-down eigenvalues:
  K-point:       1 at    0.000000    0.000000    0.000000 (in units of recip. lattice)

  State    Occupation    Eigenvalue [Ha]    Eigenvalue [eV]
      1       1.00000         -10.149912         -276.19315
      2       1.00000         -10.148980         -276.16780
      3       1.00000          -0.975509          -26.54495
      4       1.00000          -0.506695          -13.78788
      5       1.00000          -0.396552          -10.79073
      6       1.00000          -0.396548          -10.79063
      7       0.00000           0.040540            1.10314
      8       0.00000           0.040544            1.10325
      9       0.00000           0.041938            1.14118
     10       0.00000           0.094711            2.57721
     11       0.00000           0.163747            4.45578

  Current spin moment of the entire structure :
  | N = N_up - N_down (sum over all k points):         0.09836
  | S (sum over all k points)                :         0.04918

  What follows are estimated values for band gap, HOMO, LUMO, etc.
  | They are estimated on a discrete k-point grid and not necessarily exact.
  | For converged numbers, create a DOS and/or band structure plot on a denser k-grid.

  Highest occupied state (VBM) at     -8.30097874 eV (relative to internal zero)
  | Occupation number:      1.00000000
  | K-point:      55 at    0.727273    0.727273    0.000000 (in units of recip. lattice)
  | Spin channel:        2

  Lowest unoccupied state (CBM) at    -7.82685100 eV (relative to internal zero)
  | Occupation number:      0.00000000
  | K-point:      60 at    0.909091    0.545455    0.000000 (in units of recip. lattice)
  | Spin channel:        1

  ESTIMATED overall HOMO-LUMO gap:      0.47412774 eV between HOMO at k-point 55 and LUMO at k-point 60
  | This appears to be an indirect band gap.
  | Smallest direct gap :      0.51447136 eV for k_point 33 at    0.909091    0.545455    0.000000 (in units of recip. lattice)
  | Direct gap HOMO spin channel :     2
  | Direct gap LUMO spin channel :     1
  The gap value is above 0.2 eV. Unless you are using a very sparse k-point grid,
  this system is most likely an insulator or a semiconductor.
  Calculating total energy contributions from superposition of free atom densities.

  Total energy components:
  | Sum of eigenvalues            :         -45.93698191 Ha       -1250.00887764 eV
  | XC energy correction          :         -10.83312258 Ha        -294.78426400 eV
  | XC potential correction       :          13.93338521 Ha         379.14670243 eV
  | Free-atom electrostatic energy:         -33.32004492 Ha        -906.68455390 eV
  | Hartree energy correction     :           0.00000000 Ha           0.00000000 eV
  | van der Waals energy corr.    :           0.00000000 Ha           0.00000000 eV
  | Entropy correction            :           0.00000000 Ha           0.00000000 eV
  | ---------------------------
  | Total energy                  :         -76.15676421 Ha       -2072.33099310 eV
  | Total energy, T -> 0          :         -76.15676421 Ha       -2072.33099310 eV  <-- do not rely on this value for anything but (periodic) metals
  | Electronic free energy        :         -76.15676421 Ha       -2072.33099310 eV

  Derived energy quantities:
  | Kinetic energy                :          76.18472441 Ha        2073.09182898 eV
  | Electrostatic energy          :        -141.50836603 Ha       -3850.63855809 eV
  | Energy correction for multipole
  | error in Hartree potential    :           0.00000000 Ha           0.00000000 eV
  | Sum of eigenvalues per atom                           :        -625.00443882 eV
  | Total energy (T->0) per atom                          :       -1036.16549655 eV  <-- do not rely on this value for anything but (periodic) metals
  | Electronic free energy per atom                       :       -1036.16549655 eV
  Initialize hartree_potential_storage
  Max. number of atoms included in rho_multipole:            2

  End scf initialization - timings             :  max(cpu_time)    wall_clock(cpu1)
  | Time for scf. initialization               :        3.814 s           3.851 s
  | Boundary condition initialization          :        0.072 s           0.072 s
  | Integration                                :        3.235 s           3.244 s
  | Solution of K.-S. eqns.                    :        0.090 s           0.113 s
  | Grid partitioning                          :        0.057 s           0.060 s
  | Preloading free-atom quantities on grid    :        0.006 s           0.006 s
  | Free-atom superposition energy             :        0.032 s           0.032 s
  | Total energy evaluation                    :        0.000 s           0.001 s
------------------------------------------------------------

------------------------------------------------------------
          Begin self-consistency iteration #    1

  Date     :  20220221, Time     :  151722.248
------------------------------------------------------------
  Evaluating new KS density using the density matrix
  Evaluating density matrix
  Evaluating density matrix
  Time summed over all CPUs for getting density from density matrix: real work       28.693 s, elapsed       30.791 s
  Integration grid: deviation in total charge (<rho> - N_e) =  -2.405867E-06
  | <rho_up-rho_dn> = N_up-N_dn =     -3.8017; <|rho_up-rho_dn|> =      3.8017
  Pulay mixing of updated and previous charge densities.

  Evaluating partitioned Hartree potential by multipole expansion.
  | Analytical far-field extrapolation by fixed multipoles:
  | Hartree multipole sum: apparent total charge =   0.345400E-03
  Summing up the Hartree potential.
  | Estimated reciprocal-space cutoff momentum G_max:         3.32253784 bohr^-1 .
  | Reciprocal lattice points for long-range Hartree potential:     150
  Time summed over all CPUs for potential: real work        2.114 s, elapsed        2.150 s
  | RMS charge density error from multipole expansion :   0.333810E-02
  | Average real-space part of the electrostatic potential :      0.12562130 eV

  Integrating Hamiltonian matrix: batch-based integration.
  Time summed over all CPUs for integration: real work       15.034 s, elapsed       16.432 s

  Updating Kohn-Sham eigenvalues, eigenvectors, occupation numbers, and Fermi level.
  Solving generalized eigenproblem
  Determining occupation numbers for Kohn-Sham eigenstates.
  | Chemical potential (Fermi level) in eV                 : -.69159998E+01
  | Error in electron count due to remaining E_F inaccuracy: -.39079850E-13
  | Maximum occupation number of highest empty state:  0.00E+00

  Writing Kohn-Sham eigenvalues.

  Spin-up eigenvalues:
  K-point:       1 at    0.000000    0.000000    0.000000 (in units of recip. lattice)

  State    Occupation    Eigenvalue [Ha]    Eigenvalue [eV]
      1       1.00000         -10.060178         -273.75138
      2       1.00000         -10.059206         -273.72493
      3       1.00000          -1.014465          -27.60499
      4       1.00000          -0.557540          -15.17144
      5       1.00000          -0.418898          -11.39879
      6       1.00000          -0.418895          -11.39871
      7       0.00000          -0.011049           -0.30065
      8       0.00000           0.009095            0.24749
      9       0.00000           0.009101            0.24764
     10       0.00000           0.055099            1.49931
     11       0.00000           0.129151            3.51438

  Spin-down eigenvalues:
  K-point:       1 at    0.000000    0.000000    0.000000 (in units of recip. lattice)

  State    Occupation    Eigenvalue [Ha]    Eigenvalue [eV]
      1       1.00000         -10.040464         -273.21492
      2       1.00000         -10.039512         -273.18903
      3       1.00000          -0.924922          -25.16841
      4       1.00000          -0.474018          -12.89869
      5       1.00000          -0.335225           -9.12195
      6       1.00000          -0.335222           -9.12186
      7       0.00000           0.024568            0.66852
      8       0.00000           0.070513            1.91876
      9       0.00000           0.098096            2.66934
     10       0.00000           0.098101            2.66945
     11       0.00000           0.217559            5.92008

  Current spin moment of the entire structure :
  | N = N_up - N_down (sum over all k points):         0.09836
  | S (sum over all k points)                :         0.04918

  What follows are estimated values for band gap, HOMO, LUMO, etc.
  | They are estimated on a discrete k-point grid and not necessarily exact.
  | For converged numbers, create a DOS and/or band structure plot on a denser k-grid.

  Highest occupied state (VBM) at     -6.93776507 eV (relative to internal zero)
  | Occupation number:      1.00000000
  | K-point:      52 at    0.636364    0.636364    0.000000 (in units of recip. lattice)
  | Spin channel:        1

  Lowest unoccupied state (CBM) at    -6.09283918 eV (relative to internal zero)
  | Occupation number:      0.00000000
  | K-point:      52 at    0.636364    0.636364    0.000000 (in units of recip. lattice)
  | Spin channel:        2

  ESTIMATED overall HOMO-LUMO gap:      0.84492589 eV between HOMO at k-point 52 and LUMO at k-point 52
  | This appears to be a direct band gap.
  The gap value is above 0.2 eV. Unless you are using a very sparse k-point grid,
  this system is most likely an insulator or a semiconductor.

  Total energy components:
  | Sum of eigenvalues            :         -44.91083514 Ha       -1222.08600326 eV
  | XC energy correction          :         -10.83228543 Ha        -294.76148381 eV
  | XC potential correction       :          13.92446220 Ha         378.90389494 eV
  | Free-atom electrostatic energy:         -33.32004492 Ha        -906.68455390 eV
  | Hartree energy correction     :          -1.03619990 Ha         -28.19643388 eV
  | van der Waals energy corr.    :           0.00000000 Ha           0.00000000 eV
  | Entropy correction            :          -0.00000000 Ha          -0.00000000 eV
  | ---------------------------
  | Total energy                  :         -76.17490319 Ha       -2072.82457992 eV
  | Total energy, T -> 0          :         -76.17490319 Ha       -2072.82457992 eV  <-- do not rely on this value for anything but (periodic) metals
  | Electronic free energy        :         -76.17490319 Ha       -2072.82457992 eV

  Derived energy quantities:
  | Kinetic energy                :          76.30428914 Ha        2076.34535082 eV
  | Electrostatic energy          :        -141.64690690 Ha       -3854.40844693 eV
  | Energy correction for multipole
  | error in Hartree potential    :          -0.00488049 Ha          -0.13280495 eV
  | Sum of eigenvalues per atom                           :        -611.04300163 eV
  | Total energy (T->0) per atom                          :       -1036.41228996 eV  <-- do not rely on this value for anything but (periodic) metals
  | Electronic free energy per atom                       :       -1036.41228996 eV

  Self-consistency convergence accuracy:
  | Change of charge/spin density : 0.2289E+00 0.5077E+00
  | Change of sum of eigenvalues  : 0.2792E+02 eV
  | Change of total energy        : -.4936E+00 eV

  End self-consistency iteration #     1       :  max(cpu_time)    wall_clock(cpu1)
  | Time for this iteration                    :        6.449 s           6.465 s
  | Charge density update                      :        3.866 s           3.876 s
  | Density mixing & preconditioning           :        0.206 s           0.206 s
  | Hartree multipole update                   :        0.002 s           0.002 s
  | Hartree multipole summation                :        0.274 s           0.274 s
  | Integration                                :        2.057 s           2.063 s
  | Solution of K.-S. eqns.                    :        0.043 s           0.043 s
  | Total energy evaluation                    :        0.000 s           0.001 s
------------------------------------------------------------

------------------------------------------------------------
          Begin self-consistency iteration #    2

  Date     :  20220221, Time     :  151728.718
------------------------------------------------------------
  Evaluating new KS density using the density matrix
  Evaluating density matrix
  Evaluating density matrix
  Time summed over all CPUs for getting density from density matrix: real work       28.104 s, elapsed       30.083 s
  Integration grid: deviation in total charge (<rho> - N_e) =   3.454598E-04
  | <rho_up-rho_dn> = N_up-N_dn =     -2.6310; <|rho_up-rho_dn|> =      2.6310
  Pulay mixing of updated and previous charge densities.

  Evaluating partitioned Hartree potential by multipole expansion.
  | Analytical far-field extrapolation by fixed multipoles:
  | Hartree multipole sum: apparent total charge =   0.493869E-03
  Summing up the Hartree potential.
  Time summed over all CPUs for potential: real work        2.178 s, elapsed        2.225 s
  | RMS charge density error from multipole expansion :   0.825364E-02
  | Average real-space part of the electrostatic potential :      0.26984164 eV

  Integrating Hamiltonian matrix: batch-based integration.
  Time summed over all CPUs for integration: real work       14.425 s, elapsed       15.696 s

  Updating Kohn-Sham eigenvalues, eigenvectors, occupation numbers, and Fermi level.
  Solving generalized eigenproblem
  Determining occupation numbers for Kohn-Sham eigenstates.
  | Chemical potential (Fermi level) in eV                 : -.54997865E+01
  | Error in electron count due to remaining E_F inaccuracy: -.39079850E-13
  | Maximum occupation number of highest empty state:  0.00E+00

  Current spin moment of the entire structure :
  | N = N_up - N_down (sum over all k points):         0.00000
  | S (sum over all k points)                :         0.00000

  What follows are estimated values for band gap, HOMO, LUMO, etc.
  | They are estimated on a discrete k-point grid and not necessarily exact.
  | For converged numbers, create a DOS and/or band structure plot on a denser k-grid.

  Highest occupied state (VBM) at     -5.55436022 eV (relative to internal zero)
  | Occupation number:      1.00000000
  | K-point:      25 at    0.272727    0.363636    0.000000 (in units of recip. lattice)
  | Spin channel:        2

  Lowest unoccupied state (CBM) at    -4.65354834 eV (relative to internal zero)
  | Occupation number:      0.00000000
  | K-point:      25 at    0.272727    0.363636    0.000000 (in units of recip. lattice)
  | Spin channel:        1

  ESTIMATED overall HOMO-LUMO gap:      0.90081188 eV between HOMO at k-point 25 and LUMO at k-point 25
  | This appears to be a direct band gap.
  The gap value is above 0.2 eV. Unless you are using a very sparse k-point grid,
  this system is most likely an insulator or a semiconductor.

  Total energy components:
  | Sum of eigenvalues            :         -43.92525214 Ha       -1195.26692524 eV
  | XC energy correction          :         -10.85227797 Ha        -295.30550864 eV
  | XC potential correction       :          13.94367288 Ha         379.42664399 eV
  | Free-atom electrostatic energy:         -33.32004492 Ha        -906.68455390 eV
  | Hartree energy correction     :          -2.06802821 Ha         -56.27391084 eV
  | van der Waals energy corr.    :           0.00000000 Ha           0.00000000 eV
  | Entropy correction            :           0.00000000 Ha           0.00000000 eV
  | ---------------------------
  | Total energy                  :         -76.22193037 Ha       -2074.10425463 eV
  | Total energy, T -> 0          :         -76.22193037 Ha       -2074.10425463 eV  <-- do not rely on this value for anything but (periodic) metals
  | Electronic free energy        :         -76.22193037 Ha       -2074.10425463 eV

  Derived energy quantities:
  | Kinetic energy                :          76.14699886 Ha        2072.06526438 eV
  | Electrostatic energy          :        -141.51665125 Ha       -3850.86401037 eV
  | Energy correction for multipole
  | error in Hartree potential    :          -0.01148359 Ha          -0.31248451 eV
  | Sum of eigenvalues per atom                           :        -597.63346262 eV
  | Total energy (T->0) per atom                          :       -1037.05212732 eV  <-- do not rely on this value for anything but (periodic) metals
  | Electronic free energy per atom                       :       -1037.05212732 eV

  Self-consistency convergence accuracy:
  | Change of charge/spin density : 0.1231E+00 0.3456E+00
  | Change of sum of eigenvalues  : 0.2682E+02 eV
  | Change of total energy        : -.1280E+01 eV

  End self-consistency iteration #     2       :  max(cpu_time)    wall_clock(cpu1)
  | Time for this iteration                    :        6.294 s           6.309 s
  | Charge density update                      :        3.776 s           3.784 s
  | Density mixing & preconditioning           :        0.224 s           0.227 s
  | Hartree multipole update                   :        0.002 s           0.002 s
  | Hartree multipole summation                :        0.283 s           0.283 s
  | Integration                                :        1.964 s           1.969 s
  | Solution of K.-S. eqns.                    :        0.043 s           0.043 s
  | Total energy evaluation                    :        0.000 s           0.001 s
------------------------------------------------------------

------------------------------------------------------------
          Begin self-consistency iteration #    3

  Date     :  20220221, Time     :  151735.033
------------------------------------------------------------
  Evaluating new KS density using the density matrix
  Evaluating density matrix
  Evaluating density matrix
  Time summed over all CPUs for getting density from density matrix: real work       27.759 s, elapsed       29.606 s
  Integration grid: deviation in total charge (<rho> - N_e) =   4.944594E-04
  | <rho_up-rho_dn> = N_up-N_dn =     -0.5566; <|rho_up-rho_dn|> =      0.5570
  Pulay mixing of updated and previous charge densities.

  Evaluating partitioned Hartree potential by multipole expansion.
  | Analytical far-field extrapolation by fixed multipoles:
  | Hartree multipole sum: apparent total charge =   0.182343E-03
  Summing up the Hartree potential.
  Time summed over all CPUs for potential: real work        2.175 s, elapsed        2.212 s
  | RMS charge density error from multipole expansion :   0.848535E-02
  | Average real-space part of the electrostatic potential :      0.25785313 eV

  Integrating Hamiltonian matrix: batch-based integration.
  Time summed over all CPUs for integration: real work       14.873 s, elapsed       16.147 s

  Updating Kohn-Sham eigenvalues, eigenvectors, occupation numbers, and Fermi level.
  Solving generalized eigenproblem
  Determining occupation numbers for Kohn-Sham eigenstates.
  | Chemical potential (Fermi level) in eV                 : -.58574562E+01
  | Error in electron count due to remaining E_F inaccuracy: -.39079850E-13
  | Maximum occupation number of highest empty state:  0.00E+00

  Current spin moment of the entire structure :
  | N = N_up - N_down (sum over all k points):         0.00000
  | S (sum over all k points)                :         0.00000

  What follows are estimated values for band gap, HOMO, LUMO, etc.
  | They are estimated on a discrete k-point grid and not necessarily exact.
  | For converged numbers, create a DOS and/or band structure plot on a denser k-grid.

  Highest occupied state (VBM) at     -6.12231009 eV (relative to internal zero)
  | Occupation number:      1.00000000
  | K-point:      34 at    0.363636    0.272727    0.000000 (in units of recip. lattice)
  | Spin channel:        2

  Lowest unoccupied state (CBM) at    -4.68759875 eV (relative to internal zero)
  | Occupation number:      0.00000000
  | K-point:      34 at    0.363636    0.272727    0.000000 (in units of recip. lattice)
  | Spin channel:        1

  ESTIMATED overall HOMO-LUMO gap:      1.43471135 eV between HOMO at k-point 34 and LUMO at k-point 34
  | This appears to be a direct band gap.
  The gap value is above 0.2 eV. Unless you are using a very sparse k-point grid,
  this system is most likely an insulator or a semiconductor.

  Total energy components:
  | Sum of eigenvalues            :         -44.15993011 Ha       -1201.65283760 eV
  | XC energy correction          :         -10.82383257 Ha        -294.53146980 eV
  | XC potential correction       :          13.90635112 Ha         378.41106721 eV
  | Free-atom electrostatic energy:         -33.32004492 Ha        -906.68455390 eV
  | Hartree energy correction     :          -1.82765267 Ha         -49.73295957 eV
  | van der Waals energy corr.    :           0.00000000 Ha           0.00000000 eV
  | Entropy correction            :           0.00000000 Ha           0.00000000 eV
  | ---------------------------
  | Total energy                  :         -76.22510915 Ha       -2074.19075367 eV
  | Total energy, T -> 0          :         -76.22510915 Ha       -2074.19075367 eV  <-- do not rely on this value for anything but (periodic) metals
  | Electronic free energy        :         -76.22510915 Ha       -2074.19075367 eV

  Derived energy quantities:
  | Kinetic energy                :          75.97450370 Ha        2067.37143227 eV
  | Electrostatic energy          :        -141.37578028 Ha       -3847.03071613 eV
  | Energy correction for multipole
  | error in Hartree potential    :          -0.01175891 Ha          -0.31997634 eV
  | Sum of eigenvalues per atom                           :        -600.82641880 eV
  | Total energy (T->0) per atom                          :       -1037.09537683 eV  <-- do not rely on this value for anything but (periodic) metals
  | Electronic free energy per atom                       :       -1037.09537683 eV

  Self-consistency convergence accuracy:
  | Change of charge/spin density : 0.3576E-01 0.6234E-01
  | Change of sum of eigenvalues  : -.6386E+01 eV
  | Change of total energy        : -.8650E-01 eV

  End self-consistency iteration #     3       :  max(cpu_time)    wall_clock(cpu1)
  | Time for this iteration                    :        6.287 s           6.300 s
  | Charge density update                      :        3.716 s           3.722 s
  | Density mixing & preconditioning           :        0.222 s           0.223 s
  | Hartree multipole update                   :        0.002 s           0.002 s
  | Hartree multipole summation                :        0.281 s           0.282 s
  | Integration                                :        2.022 s           2.026 s
  | Solution of K.-S. eqns.                    :        0.043 s           0.044 s
  | Total energy evaluation                    :        0.000 s           0.001 s
------------------------------------------------------------

------------------------------------------------------------
          Begin self-consistency iteration #    4

  Date     :  20220221, Time     :  151741.338
------------------------------------------------------------
  Evaluating new KS density using the density matrix
  Evaluating density matrix
  Evaluating density matrix
  Time summed over all CPUs for getting density from density matrix: real work       27.881 s, elapsed       29.840 s
  Integration grid: deviation in total charge (<rho> - N_e) =   1.829294E-04
  | <rho_up-rho_dn> = N_up-N_dn =     -0.0877; <|rho_up-rho_dn|> =      0.1177
  Pulay mixing of updated and previous charge densities.

  Evaluating partitioned Hartree potential by multipole expansion.
  | Analytical far-field extrapolation by fixed multipoles:
  | Hartree multipole sum: apparent total charge =   0.273287E-03
  Summing up the Hartree potential.
  Time summed over all CPUs for potential: real work        2.169 s, elapsed        2.204 s
  | RMS charge density error from multipole expansion :   0.821681E-02
  | Average real-space part of the electrostatic potential :      0.24545994 eV

  Integrating Hamiltonian matrix: batch-based integration.
  Time summed over all CPUs for integration: real work       14.531 s, elapsed       15.658 s

  Updating Kohn-Sham eigenvalues, eigenvectors, occupation numbers, and Fermi level.
  Solving generalized eigenproblem
  Determining occupation numbers for Kohn-Sham eigenstates.
  | Chemical potential (Fermi level) in eV                 : -.62812743E+01
  | Error in electron count due to remaining E_F inaccuracy: -.72596276E-08
  | Maximum occupation number of highest empty state:  0.00E+00

  Current spin moment of the entire structure :
  | N = N_up - N_down (sum over all k points):         0.00000
  | S (sum over all k points)                :         0.00000

  What follows are estimated values for band gap, HOMO, LUMO, etc.
  | They are estimated on a discrete k-point grid and not necessarily exact.
  | For converged numbers, create a DOS and/or band structure plot on a denser k-grid.

  Highest occupied state (VBM) at     -6.28488238 eV (relative to internal zero)
  | Occupation number:      0.99999983
  | K-point:      34 at    0.363636    0.272727    0.000000 (in units of recip. lattice)
  | Spin channel:        2

  Lowest unoccupied state (CBM) at    -4.78086652 eV (relative to internal zero)
  | Occupation number:      0.00000000
  | K-point:      34 at    0.363636    0.272727    0.000000 (in units of recip. lattice)
  | Spin channel:        1

  ESTIMATED overall HOMO-LUMO gap:      1.50401586 eV between HOMO at k-point 34 and LUMO at k-point 34
  | This appears to be a direct band gap.
  The gap value is above 0.2 eV. Unless you are using a very sparse k-point grid,
  this system is most likely an insulator or a semiconductor.

  Total energy components:
  | Sum of eigenvalues            :         -44.25467827 Ha       -1204.23106633 eV
  | XC energy correction          :         -10.81517217 Ha        -294.29580842 eV
  | XC potential correction       :          13.89520662 Ha         378.10781002 eV
  | Free-atom electrostatic energy:         -33.32004492 Ha        -906.68455390 eV
  | Hartree energy correction     :          -1.73059516 Ha         -47.09189033 eV
  | van der Waals energy corr.    :           0.00000000 Ha           0.00000000 eV
  | Entropy correction            :          -0.00000000 Ha          -0.00000000 eV
  | ---------------------------
  | Total energy                  :         -76.22528391 Ha       -2074.19550897 eV
  | Total energy, T -> 0          :         -76.22528391 Ha       -2074.19550897 eV  <-- do not rely on this value for anything but (periodic) metals
  | Electronic free energy        :         -76.22528391 Ha       -2074.19550897 eV

  Derived energy quantities:
  | Kinetic energy                :          75.95722319 Ha        2066.90120574 eV
  | Electrostatic energy          :        -141.36733492 Ha       -3846.80090629 eV
  | Energy correction for multipole
  | error in Hartree potential    :          -0.01144699 Ha          -0.31148844 eV
  | Sum of eigenvalues per atom                           :        -602.11553316 eV
  | Total energy (T->0) per atom                          :       -1037.09775448 eV  <-- do not rely on this value for anything but (periodic) metals
  | Electronic free energy per atom                       :       -1037.09775448 eV

  Self-consistency convergence accuracy:
  | Change of charge/spin density : 0.1481E-01 0.1534E-01
  | Change of sum of eigenvalues  : -.2578E+01 eV
  | Change of total energy        : -.4755E-02 eV

  End self-consistency iteration #     4       :  max(cpu_time)    wall_clock(cpu1)
  | Time for this iteration                    :        6.246 s           6.261 s
  | Charge density update                      :        3.745 s           3.753 s
  | Density mixing & preconditioning           :        0.219 s           0.220 s
  | Hartree multipole update                   :        0.002 s           0.001 s
  | Hartree multipole summation                :        0.280 s           0.281 s
  | Integration                                :        1.958 s           1.962 s
  | Solution of K.-S. eqns.                    :        0.042 s           0.043 s
  | Total energy evaluation                    :        0.000 s           0.001 s
------------------------------------------------------------

------------------------------------------------------------
          Begin self-consistency iteration #    5

  Date     :  20220221, Time     :  151747.601
------------------------------------------------------------
  Evaluating new KS density using the density matrix
  Evaluating density matrix
  Evaluating density matrix
  Time summed over all CPUs for getting density from density matrix: real work       27.598 s, elapsed       29.524 s
  Integration grid: deviation in total charge (<rho> - N_e) =   2.738231E-04
  | <rho_up-rho_dn> = N_up-N_dn =     -0.0385; <|rho_up-rho_dn|> =      0.0422
  Pulay mixing of updated and previous charge densities.

  Evaluating partitioned Hartree potential by multipole expansion.
  | Analytical far-field extrapolation by fixed multipoles:
  | Hartree multipole sum: apparent total charge =   0.251897E-03
  Summing up the Hartree potential.
  Time summed over all CPUs for potential: real work        2.174 s, elapsed        2.210 s
  | RMS charge density error from multipole expansion :   0.813699E-02
  | Average real-space part of the electrostatic potential :      0.24461223 eV

  Integrating Hamiltonian matrix: batch-based integration.
  Time summed over all CPUs for integration: real work       14.931 s, elapsed       16.310 s

  Updating Kohn-Sham eigenvalues, eigenvectors, occupation numbers, and Fermi level.
  Solving generalized eigenproblem
  Determining occupation numbers for Kohn-Sham eigenstates.
  | Chemical potential (Fermi level) in eV                 : -.57827786E+01
  | Error in electron count due to remaining E_F inaccuracy: -.39079850E-13
  | Maximum occupation number of highest empty state:  0.00E+00

  Current spin moment of the entire structure :
  | N = N_up - N_down (sum over all k points):         0.00000
  | S (sum over all k points)                :         0.00000

  What follows are estimated values for band gap, HOMO, LUMO, etc.
  | They are estimated on a discrete k-point grid and not necessarily exact.
  | For converged numbers, create a DOS and/or band structure plot on a denser k-grid.

  Highest occupied state (VBM) at     -6.24803563 eV (relative to internal zero)
  | Occupation number:      1.00000000
  | K-point:      34 at    0.363636    0.272727    0.000000 (in units of recip. lattice)
  | Spin channel:        1

  Lowest unoccupied state (CBM) at    -4.73515955 eV (relative to internal zero)
  | Occupation number:      0.00000000
  | K-point:      34 at    0.363636    0.272727    0.000000 (in units of recip. lattice)
  | Spin channel:        2

  ESTIMATED overall HOMO-LUMO gap:      1.51287608 eV between HOMO at k-point 34 and LUMO at k-point 34
  | This appears to be a direct band gap.
  The gap value is above 0.2 eV. Unless you are using a very sparse k-point grid,
  this system is most likely an insulator or a semiconductor.

  Total energy components:
  | Sum of eigenvalues            :         -44.22689909 Ha       -1203.47515648 eV
  | XC energy correction          :         -10.81797903 Ha        -294.37218690 eV
  | XC potential correction       :          13.89873855 Ha         378.20391870 eV
  | Free-atom electrostatic energy:         -33.32004492 Ha        -906.68455390 eV
  | Hartree energy correction     :          -1.75911709 Ha         -47.86801162 eV
  | van der Waals energy corr.    :           0.00000000 Ha           0.00000000 eV
  | Entropy correction            :           0.00000000 Ha           0.00000000 eV
  | ---------------------------
  | Total energy                  :         -76.22530159 Ha       -2074.19599021 eV
  | Total energy, T -> 0          :         -76.22530159 Ha       -2074.19599021 eV  <-- do not rely on this value for anything but (periodic) metals
  | Electronic free energy        :         -76.22530159 Ha       -2074.19599021 eV

  Derived energy quantities:
  | Kinetic energy                :          75.98489466 Ha        2067.65418490 eV
  | Electrostatic energy          :        -141.39221722 Ha       -3847.47798820 eV
  | Energy correction for multipole
  | error in Hartree potential    :          -0.01139453 Ha          -0.31006098 eV
  | Sum of eigenvalues per atom                           :        -601.73757824 eV
  | Total energy (T->0) per atom                          :       -1037.09799510 eV  <-- do not rely on this value for anything but (periodic) metals
  | Electronic free energy per atom                       :       -1037.09799510 eV

  Self-consistency convergence accuracy:
  | Change of charge/spin density : 0.3317E-02 0.5044E-02
  | Change of sum of eigenvalues  : 0.7559E+00 eV
  | Change of total energy        : -.4812E-03 eV

  End self-consistency iteration #     5       :  max(cpu_time)    wall_clock(cpu1)
  | Time for this iteration                    :        6.287 s           6.302 s
  | Charge density update                      :        3.701 s           3.710 s
  | Density mixing & preconditioning           :        0.218 s           0.218 s
  | Hartree multipole update                   :        0.002 s           0.002 s
  | Hartree multipole summation                :        0.281 s           0.281 s
  | Integration                                :        2.041 s           2.046 s
  | Solution of K.-S. eqns.                    :        0.043 s           0.044 s
  | Total energy evaluation                    :        0.000 s           0.001 s
------------------------------------------------------------

------------------------------------------------------------
          Begin self-consistency iteration #    6

  Date     :  20220221, Time     :  151753.909
------------------------------------------------------------
  Evaluating new KS density using the density matrix
  Evaluating density matrix
  Evaluating density matrix
  Time summed over all CPUs for getting density from density matrix: real work       27.175 s, elapsed       28.829 s
  Integration grid: deviation in total charge (<rho> - N_e) =   2.524416E-04
  | <rho_up-rho_dn> = N_up-N_dn =      0.0002; <|rho_up-rho_dn|> =      0.0044
  Pulay mixing of updated and previous charge densities.

  Evaluating partitioned Hartree potential by multipole expansion.
  | Analytical far-field extrapolation by fixed multipoles:
  | Hartree multipole sum: apparent total charge =   0.156836E-03
  Summing up the Hartree potential.
  Time summed over all CPUs for potential: real work        2.162 s, elapsed        2.195 s
  | RMS charge density error from multipole expansion :   0.812089E-02
  | Average real-space part of the electrostatic potential :      0.24506304 eV

  Integrating Hamiltonian matrix: batch-based integration.
  Time summed over all CPUs for integration: real work       13.773 s, elapsed       14.795 s

  Updating Kohn-Sham eigenvalues, eigenvectors, occupation numbers, and Fermi level.
  Solving generalized eigenproblem
  Determining occupation numbers for Kohn-Sham eigenstates.
  | Chemical potential (Fermi level) in eV                 : -.62037042E+01
  | Error in electron count due to remaining E_F inaccuracy: -.39079850E-13
  | Maximum occupation number of highest empty state:  0.00E+00

  Current spin moment of the entire structure :
  | N = N_up - N_down (sum over all k points):         0.00000
  | S (sum over all k points)                :         0.00000

  What follows are estimated values for band gap, HOMO, LUMO, etc.
  | They are estimated on a discrete k-point grid and not necessarily exact.
  | For converged numbers, create a DOS and/or band structure plot on a denser k-grid.

  Highest occupied state (VBM) at     -6.23748051 eV (relative to internal zero)
  | Occupation number:      1.00000000
  | K-point:      34 at    0.363636    0.272727    0.000000 (in units of recip. lattice)
  | Spin channel:        2

  Lowest unoccupied state (CBM) at    -4.72424940 eV (relative to internal zero)
  | Occupation number:      0.00000000
  | K-point:      34 at    0.363636    0.272727    0.000000 (in units of recip. lattice)
  | Spin channel:        1

  ESTIMATED overall HOMO-LUMO gap:      1.51323111 eV between HOMO at k-point 34 and LUMO at k-point 34
  | This appears to be a direct band gap.
  The gap value is above 0.2 eV. Unless you are using a very sparse k-point grid,
  this system is most likely an insulator or a semiconductor.

  Total energy components:
  | Sum of eigenvalues            :         -44.21917047 Ha       -1203.26484995 eV
  | XC energy correction          :         -10.81876612 Ha        -294.39360481 eV
  | XC potential correction       :          13.89973906 Ha         378.23114388 eV
  | Free-atom electrostatic energy:         -33.32004492 Ha        -906.68455390 eV
  | Hartree energy correction     :          -1.76705798 Ha         -48.08409399 eV
  | van der Waals energy corr.    :           0.00000000 Ha           0.00000000 eV
  | Entropy correction            :           0.00000000 Ha           0.00000000 eV
  | ---------------------------
  | Total energy                  :         -76.22530044 Ha       -2074.19595878 eV
  | Total energy, T -> 0          :         -76.22530044 Ha       -2074.19595878 eV  <-- do not rely on this value for anything but (periodic) metals
  | Electronic free energy        :         -76.22530044 Ha       -2074.19595878 eV

  Derived energy quantities:
  | Kinetic energy                :          75.99119877 Ha        2067.82572841 eV
  | Electrostatic energy          :        -141.39773308 Ha       -3847.62808237 eV
  | Energy correction for multipole
  | error in Hartree potential    :          -0.01138196 Ha          -0.30971892 eV
  | Sum of eigenvalues per atom                           :        -601.63242498 eV
  | Total energy (T->0) per atom                          :       -1037.09797939 eV  <-- do not rely on this value for anything but (periodic) metals
  | Electronic free energy per atom                       :       -1037.09797939 eV

  Self-consistency convergence accuracy:
  | Change of charge/spin density : 0.6085E-03 0.5388E-03
  | Change of sum of eigenvalues  : 0.2103E+00 eV
  | Change of total energy        : 0.3143E-04 eV

  End self-consistency iteration #     6       :  max(cpu_time)    wall_clock(cpu1)
  | Time for this iteration                    :        5.983 s           5.997 s
  | Charge density update                      :        3.616 s           3.625 s
  | Density mixing & preconditioning           :        0.194 s           0.194 s
  | Hartree multipole update                   :        0.002 s           0.001 s
  | Hartree multipole summation                :        0.279 s           0.280 s
  | Integration                                :        1.850 s           1.854 s
  | Solution of K.-S. eqns.                    :        0.041 s           0.042 s
  | Total energy evaluation                    :        0.000 s           0.001 s
------------------------------------------------------------

------------------------------------------------------------
          Begin self-consistency iteration #    7

  Date     :  20220221, Time     :  151759.909
------------------------------------------------------------
  Evaluating new KS density using the density matrix
  Evaluating density matrix
  Evaluating density matrix
  Time summed over all CPUs for getting density from density matrix: real work       25.756 s, elapsed       27.004 s
  Integration grid: deviation in total charge (<rho> - N_e) =   1.573794E-04
  | <rho_up-rho_dn> = N_up-N_dn =     -0.0018; <|rho_up-rho_dn|> =      0.0018
  Pulay mixing of updated and previous charge densities.

  Evaluating partitioned Hartree potential by multipole expansion.
  | Analytical far-field extrapolation by fixed multipoles:
  | Hartree multipole sum: apparent total charge =   0.152962E-03
  Summing up the Hartree potential.
  Time summed over all CPUs for potential: real work        2.149 s, elapsed        2.185 s
  | RMS charge density error from multipole expansion :   0.812070E-02
  | Average real-space part of the electrostatic potential :      0.24507197 eV

  Integrating Hamiltonian matrix: batch-based integration.
  Time summed over all CPUs for integration: real work       13.900 s, elapsed       14.191 s

  Updating Kohn-Sham eigenvalues, eigenvectors, occupation numbers, and Fermi level.
  Solving generalized eigenproblem
  Determining occupation numbers for Kohn-Sham eigenstates.
  | Chemical potential (Fermi level) in eV                 : -.62029337E+01
  | Error in electron count due to remaining E_F inaccuracy: -.39079850E-13
  | Maximum occupation number of highest empty state:  0.00E+00

  Current spin moment of the entire structure :
  | N = N_up - N_down (sum over all k points):         0.00000
  | S (sum over all k points)                :         0.00000

  What follows are estimated values for band gap, HOMO, LUMO, etc.
  | They are estimated on a discrete k-point grid and not necessarily exact.
  | For converged numbers, create a DOS and/or band structure plot on a denser k-grid.

  Highest occupied state (VBM) at     -6.23753421 eV (relative to internal zero)
  | Occupation number:      1.00000000
  | K-point:      34 at    0.363636    0.272727    0.000000 (in units of recip. lattice)
  | Spin channel:        2

  Lowest unoccupied state (CBM) at    -4.72422025 eV (relative to internal zero)
  | Occupation number:      0.00000000
  | K-point:      34 at    0.363636    0.272727    0.000000 (in units of recip. lattice)
  | Spin channel:        1

  ESTIMATED overall HOMO-LUMO gap:      1.51331396 eV between HOMO at k-point 34 and LUMO at k-point 34
  | This appears to be a direct band gap.
  The gap value is above 0.2 eV. Unless you are using a very sparse k-point grid,
  this system is most likely an insulator or a semiconductor.

  Total energy components:
  | Sum of eigenvalues            :         -44.21918069 Ha       -1203.26512791 eV
  | XC energy correction          :         -10.81876568 Ha        -294.39359267 eV
  | XC potential correction       :          13.89973867 Ha         378.23113328 eV
  | Free-atom electrostatic energy:         -33.32004492 Ha        -906.68455390 eV
  | Hartree energy correction     :          -1.76704788 Ha         -48.08381934 eV
  | van der Waals energy corr.    :           0.00000000 Ha           0.00000000 eV
  | Entropy correction            :           0.00000000 Ha           0.00000000 eV
  | ---------------------------
  | Total energy                  :         -76.22530050 Ha       -2074.19596055 eV
  | Total energy, T -> 0          :         -76.22530050 Ha       -2074.19596055 eV  <-- do not rely on this value for anything but (periodic) metals
  | Electronic free energy        :         -76.22530050 Ha       -2074.19596055 eV

  Derived energy quantities:
  | Kinetic energy                :          75.99120102 Ha        2067.82578944 eV
  | Electrostatic energy          :        -141.39773584 Ha       -3847.62815732 eV
  | Energy correction for multipole
  | error in Hartree potential    :          -0.01138180 Ha          -0.30971452 eV
  | Sum of eigenvalues per atom                           :        -601.63256396 eV
  | Total energy (T->0) per atom                          :       -1037.09798027 eV  <-- do not rely on this value for anything but (periodic) metals
  | Electronic free energy per atom                       :       -1037.09798027 eV

  Self-consistency convergence accuracy:
  | Change of charge/spin density : 0.1467E-02 0.1872E-03
  | Change of sum of eigenvalues  : -.2780E-03 eV
  | Change of total energy        : -.1764E-05 eV

  End self-consistency iteration #     7       :  max(cpu_time)    wall_clock(cpu1)
  | Time for this iteration                    :        5.672 s           5.684 s
  | Charge density update                      :        3.385 s           3.391 s
  | Density mixing & preconditioning           :        0.192 s           0.193 s
  | Hartree multipole update                   :        0.002 s           0.001 s
  | Hartree multipole summation                :        0.277 s           0.278 s
  | Integration                                :        1.774 s           1.778 s
  | Solution of K.-S. eqns.                    :        0.041 s           0.042 s
  | Total energy evaluation                    :        0.000 s           0.001 s
------------------------------------------------------------

------------------------------------------------------------
          Begin self-consistency iteration #    8

  Date     :  20220221, Time     :  151805.598
------------------------------------------------------------
  Evaluating new KS density using the density matrix
  Evaluating density matrix
  Evaluating density matrix
  Time summed over all CPUs for getting density from density matrix: real work       25.760 s, elapsed       26.676 s
  Integration grid: deviation in total charge (<rho> - N_e) =   1.535060E-04
  | <rho_up-rho_dn> = N_up-N_dn =     -0.0017; <|rho_up-rho_dn|> =      0.0017
  Pulay mixing of updated and previous charge densities.

  Evaluating partitioned Hartree potential by multipole expansion.
  | Analytical far-field extrapolation by fixed multipoles:
  | Hartree multipole sum: apparent total charge =   0.702118E-04
  Summing up the Hartree potential.
  Time summed over all CPUs for potential: real work        2.156 s, elapsed        2.265 s
  | RMS charge density error from multipole expansion :   0.811779E-02
  | Average real-space part of the electrostatic potential :      0.24523933 eV

  Integrating Hamiltonian matrix: batch-based integration.
  Time summed over all CPUs for integration: real work       15.392 s, elapsed       15.788 s

  Updating Kohn-Sham eigenvalues, eigenvectors, occupation numbers, and Fermi level.
  Solving generalized eigenproblem
  Determining occupation numbers for Kohn-Sham eigenstates.
  | Chemical potential (Fermi level) in eV                 : -.62348812E+01
  | Error in electron count due to remaining E_F inaccuracy: -.47961635E-13
  | Maximum occupation number of highest empty state:  0.00E+00

  Current spin moment of the entire structure :
  | N = N_up - N_down (sum over all k points):         0.00000
  | S (sum over all k points)                :         0.00000

  What follows are estimated values for band gap, HOMO, LUMO, etc.
  | They are estimated on a discrete k-point grid and not necessarily exact.
  | For converged numbers, create a DOS and/or band structure plot on a denser k-grid.

  Highest occupied state (VBM) at     -6.24003763 eV (relative to internal zero)
  | Occupation number:      1.00000000
  | K-point:      34 at    0.363636    0.272727    0.000000 (in units of recip. lattice)
  | Spin channel:        2

  Lowest unoccupied state (CBM) at    -4.72429357 eV (relative to internal zero)
  | Occupation number:      0.00000000
  | K-point:      34 at    0.363636    0.272727    0.000000 (in units of recip. lattice)
  | Spin channel:        1

  ESTIMATED overall HOMO-LUMO gap:      1.51574406 eV between HOMO at k-point 34 and LUMO at k-point 34
  | This appears to be a direct band gap.
  The gap value is above 0.2 eV. Unless you are using a very sparse k-point grid,
  this system is most likely an insulator or a semiconductor.

  Total energy components:
  | Sum of eigenvalues            :         -44.22018317 Ha       -1203.29240699 eV
  | XC energy correction          :         -10.81867722 Ha        -294.39118566 eV
  | XC potential correction       :          13.89963051 Ha         378.22819030 eV
  | Free-atom electrostatic energy:         -33.32004492 Ha        -906.68455390 eV
  | Hartree energy correction     :          -1.76602556 Ha         -48.05600054 eV
  | van der Waals energy corr.    :           0.00000000 Ha           0.00000000 eV
  | Entropy correction            :          -0.00000000 Ha          -0.00000000 eV
  | ---------------------------
  | Total energy                  :         -76.22530036 Ha       -2074.19595679 eV
  | Total energy, T -> 0          :         -76.22530036 Ha       -2074.19595679 eV  <-- do not rely on this value for anything but (periodic) metals
  | Electronic free energy        :         -76.22530036 Ha       -2074.19595679 eV

  Derived energy quantities:
  | Kinetic energy                :          75.99062636 Ha        2067.81015220 eV
  | Electrostatic energy          :        -141.39724950 Ha       -3847.61492333 eV
  | Energy correction for multipole
  | error in Hartree potential    :          -0.01137902 Ha          -0.30963896 eV
  | Sum of eigenvalues per atom                           :        -601.64620350 eV
  | Total energy (T->0) per atom                          :       -1037.09797840 eV  <-- do not rely on this value for anything but (periodic) metals
  | Electronic free energy per atom                       :       -1037.09797840 eV

  Self-consistency convergence accuracy:
  | Change of charge/spin density : 0.1737E-02 0.1808E-03
  | Change of sum of eigenvalues  : -.2728E-01 eV
  | Change of total energy        : 0.3754E-05 eV

  End self-consistency iteration #     8       :  max(cpu_time)    wall_clock(cpu1)
  | Time for this iteration                    :        5.841 s           5.855 s
  | Charge density update                      :        3.342 s           3.350 s
  | Density mixing & preconditioning           :        0.191 s           0.192 s
  | Hartree multipole update                   :        0.002 s           0.002 s
  | Hartree multipole summation                :        0.287 s           0.287 s
  | Integration                                :        1.974 s           1.979 s
  | Solution of K.-S. eqns.                    :        0.043 s           0.043 s
  | Total energy evaluation                    :        0.000 s           0.001 s
------------------------------------------------------------

------------------------------------------------------------
          Begin self-consistency iteration #    9

  Date     :  20220221, Time     :  151811.459
------------------------------------------------------------
  Evaluating new KS density using the density matrix
  Evaluating density matrix
  Evaluating density matrix
  Time summed over all CPUs for getting density from density matrix: real work       29.609 s, elapsed       31.168 s
  Integration grid: deviation in total charge (<rho> - N_e) =   7.075529E-05
  | <rho_up-rho_dn> = N_up-N_dn =     -0.0001; <|rho_up-rho_dn|> =      0.0002
  Pulay mixing of updated and previous charge densities.

  Evaluating partitioned Hartree potential by multipole expansion.
  | Analytical far-field extrapolation by fixed multipoles:
  | Hartree multipole sum: apparent total charge =   0.856459E-05
  Summing up the Hartree potential.
  Time summed over all CPUs for potential: real work        2.172 s, elapsed        2.230 s
  | RMS charge density error from multipole expansion :   0.811608E-02
  | Average real-space part of the electrostatic potential :      0.24541370 eV

  Integrating Hamiltonian matrix: batch-based integration.
  Time summed over all CPUs for integration: real work       15.419 s, elapsed       16.078 s

  Updating Kohn-Sham eigenvalues, eigenvectors, occupation numbers, and Fermi level.
  Solving generalized eigenproblem
  Determining occupation numbers for Kohn-Sham eigenstates.
  | Chemical potential (Fermi level) in eV                 : -.62306802E+01
  | Error in electron count due to remaining E_F inaccuracy: -.39079850E-13
  | Maximum occupation number of highest empty state:  0.00E+00

  Current spin moment of the entire structure :
  | N = N_up - N_down (sum over all k points):         0.00000
  | S (sum over all k points)                :         0.00000

  What follows are estimated values for band gap, HOMO, LUMO, etc.
  | They are estimated on a discrete k-point grid and not necessarily exact.
[...]
  | Occupation number:      0.00000000
  | K-point:      34 at    0.363636    0.272727    0.000000 (in units of recip. lattice)
  | Spin channel:        1

  ESTIMATED overall HOMO-LUMO gap:      1.51584031 eV between HOMO at k-point 34 and LUMO at k-point 34
  | This appears to be a direct band gap.
  The gap value is above 0.2 eV. Unless you are using a very sparse k-point grid,
  this system is most likely an insulator or a semiconductor.

  Total energy components:
  | Sum of eigenvalues            :         -44.22002016 Ha       -1203.28797119 eV
  | XC energy correction          :         -10.81869638 Ha        -294.39170700 eV
  | XC potential correction       :          13.89965823 Ha         378.22894462 eV
  | Free-atom electrostatic energy:         -33.32004492 Ha        -906.68455390 eV
  | Hartree energy correction     :          -1.76619702 Ha         -48.06066624 eV
  | van der Waals energy corr.    :           0.00000000 Ha           0.00000000 eV
  | Entropy correction            :          -0.00000000 Ha          -0.00000000 eV
  | ---------------------------
  | Total energy                  :         -76.22530025 Ha       -2074.19595370 eV
  | Total energy, T -> 0          :         -76.22530025 Ha       -2074.19595370 eV  <-- do not rely on this value for anything but (periodic) metals
  | Electronic free energy        :         -76.22530025 Ha       -2074.19595370 eV

  Derived energy quantities:
  | Kinetic energy                :          75.99063753 Ha        2067.81045617 eV
  | Electrostatic energy          :        -141.39724140 Ha       -3847.61470288 eV
  | Energy correction for multipole
  | error in Hartree potential    :          -0.01137650 Ha          -0.30957025 eV
  | Sum of eigenvalues per atom                           :        -601.64398560 eV
  | Total energy (T->0) per atom                          :       -1037.09797685 eV  <-- do not rely on this value for anything but (periodic) metals
  | Electronic free energy per atom                       :       -1037.09797685 eV

  Self-consistency convergence accuracy:
  | Change of charge/spin density : 0.2275E-06 0.1217E-06
  | Change of sum of eigenvalues  : -.2647E-04 eV
  | Change of total energy        : 0.1414E-07 eV

  End self-consistency iteration #    14       :  max(cpu_time)    wall_clock(cpu1)
  | Time for this iteration                    :        6.825 s           6.842 s
  | Charge density update                      :        4.074 s           4.084 s
  | Density mixing & preconditioning           :        0.194 s           0.195 s
  | Hartree multipole update                   :        0.002 s           0.002 s
  | Hartree multipole summation                :        0.283 s           0.284 s
  | Integration                                :        2.226 s           2.231 s
  | Solution of K.-S. eqns.                    :        0.044 s           0.044 s
  | Total energy evaluation                    :        0.000 s           0.000 s
------------------------------------------------------------

------------------------------------------------------------
          Begin self-consistency iteration #   15

  Date     :  20220221, Time     :  151851.468
------------------------------------------------------------
  Evaluating new KS density using the density matrix
  Evaluating density matrix
  Evaluating density matrix
  Time summed over all CPUs for getting density from density matrix: real work       30.057 s, elapsed       31.994 s
  Integration grid: deviation in total charge (<rho> - N_e) =  -1.173659E-08
  | <rho_up-rho_dn> = N_up-N_dn =      0.0000; <|rho_up-rho_dn|> =      0.0000
  Pulay mixing of updated and previous charge densities.

  Evaluating partitioned Hartree potential by multipole expansion.
  | Analytical far-field extrapolation by fixed multipoles:
  | Hartree multipole sum: apparent total charge =  -0.559104E-06
  Summing up the Hartree potential.
  Time summed over all CPUs for potential: real work        2.206 s, elapsed        2.248 s
  | RMS charge density error from multipole expansion :   0.811589E-02
  | Average real-space part of the electrostatic potential :      0.24543268 eV

  Integrating Hamiltonian matrix: batch-based integration.
  Time summed over all CPUs for integration: real work       16.912 s, elapsed       18.051 s

  Updating Kohn-Sham eigenvalues, eigenvectors, occupation numbers, and Fermi level.
  Solving generalized eigenproblem
  Determining occupation numbers for Kohn-Sham eigenstates.
  | Chemical potential (Fermi level) in eV                 : -.62306807E+01
  | Error in electron count due to remaining E_F inaccuracy: -.39079850E-13
  | Maximum occupation number of highest empty state:  0.00E+00

  Current spin moment of the entire structure :
  | N = N_up - N_down (sum over all k points):         0.00000
  | S (sum over all k points)                :         0.00000

  What follows are estimated values for band gap, HOMO, LUMO, etc.
  | They are estimated on a discrete k-point grid and not necessarily exact.
  | For converged numbers, create a DOS and/or band structure plot on a denser k-grid.

  Highest occupied state (VBM) at     -6.23986701 eV (relative to internal zero)
  | Occupation number:      1.00000000
  | K-point:      34 at    0.363636    0.272727    0.000000 (in units of recip. lattice)
  | Spin channel:        2

  Lowest unoccupied state (CBM) at    -4.72402677 eV (relative to internal zero)
  | Occupation number:      0.00000000
  | K-point:      34 at    0.363636    0.272727    0.000000 (in units of recip. lattice)
  | Spin channel:        1

  ESTIMATED overall HOMO-LUMO gap:      1.51584024 eV between HOMO at k-point 34 and LUMO at k-point 34
  | This appears to be a direct band gap.
  The gap value is above 0.2 eV. Unless you are using a very sparse k-point grid,
  this system is most likely an insulator or a semiconductor.

  Total energy components:
  | Sum of eigenvalues            :         -44.22002023 Ha       -1203.28797314 eV
  | XC energy correction          :         -10.81869637 Ha        -294.39170678 eV
  | XC potential correction       :          13.89965822 Ha         378.22894436 eV
  | Free-atom electrostatic energy:         -33.32004492 Ha        -906.68455390 eV
  | Hartree energy correction     :          -1.76619695 Ha         -48.06066424 eV
  | van der Waals energy corr.    :           0.00000000 Ha           0.00000000 eV
  | Entropy correction            :          -0.00000000 Ha          -0.00000000 eV
  | ---------------------------
  | Total energy                  :         -76.22530025 Ha       -2074.19595370 eV
  | Total energy, T -> 0          :         -76.22530025 Ha       -2074.19595370 eV  <-- do not rely on this value for anything but (periodic) metals
  | Electronic free energy        :         -76.22530025 Ha       -2074.19595370 eV

  Derived energy quantities:
  | Kinetic energy                :          75.99063748 Ha        2067.81045495 eV
  | Electrostatic energy          :        -141.39724136 Ha       -3847.61470187 eV
  | Energy correction for multipole
  | error in Hartree potential    :          -0.01137650 Ha          -0.30957023 eV
  | Sum of eigenvalues per atom                           :        -601.64398657 eV
  | Total energy (T->0) per atom                          :       -1037.09797685 eV  <-- do not rely on this value for anything but (periodic) metals
  | Electronic free energy per atom                       :       -1037.09797685 eV

  Self-consistency convergence accuracy:
  | Change of charge/spin density : 0.6625E-07 0.4390E-06
  | Change of sum of eigenvalues  : -.1948E-05 eV
  | Change of total energy        : 0.3790E-09 eV

  Preliminary charge convergence reached. Turning off preconditioner.

  Writing Kohn-Sham eigenvalues.

  Spin-up eigenvalues:
  K-point:       1 at    0.000000    0.000000    0.000000 (in units of recip. lattice)

  State    Occupation    Eigenvalue [Ha]    Eigenvalue [eV]
      1       1.00000          -9.979104         -271.54524
      2       1.00000          -9.978141         -271.51904
      3       1.00000          -0.920481          -25.04757
      4       1.00000          -0.482542          -13.13063
      5       1.00000          -0.313228           -8.52337
      6       1.00000          -0.313225           -8.52329
      7       0.00000           0.020111            0.54724
      8       0.00000           0.068111            1.85339
      9       0.00000           0.106427            2.89603
     10       0.00000           0.106433            2.89619
     11       0.00000           0.222724            6.06063

  Spin-down eigenvalues:
  K-point:       1 at    0.000000    0.000000    0.000000 (in units of recip. lattice)

  State    Occupation    Eigenvalue [Ha]    Eigenvalue [eV]
      1       1.00000          -9.979104         -271.54524
      2       1.00000          -9.978141         -271.51904
      3       1.00000          -0.920481          -25.04757
      4       1.00000          -0.482542          -13.13063
      5       1.00000          -0.313228           -8.52337
      6       1.00000          -0.313225           -8.52329
      7       0.00000           0.020111            0.54724
      8       0.00000           0.068111            1.85339
      9       0.00000           0.106427            2.89603
     10       0.00000           0.106433            2.89619
     11       0.00000           0.222724            6.06063

  Current spin moment of the entire structure :
  | N = N_up - N_down (sum over all k points):         0.00000
  | S (sum over all k points)                :         0.00000

  What follows are estimated values for band gap, HOMO, LUMO, etc.
  | They are estimated on a discrete k-point grid and not necessarily exact.
  | For converged numbers, create a DOS and/or band structure plot on a denser k-grid.

  Highest occupied state (VBM) at     -6.23986701 eV (relative to internal zero)
  | Occupation number:      1.00000000
  | K-point:      34 at    0.363636    0.272727    0.000000 (in units of recip. lattice)
  | Spin channel:        2

  Lowest unoccupied state (CBM) at    -4.72402677 eV (relative to internal zero)
  | Occupation number:      0.00000000
  | K-point:      34 at    0.363636    0.272727    0.000000 (in units of recip. lattice)
  | Spin channel:        1

  ESTIMATED overall HOMO-LUMO gap:      1.51584024 eV between HOMO at k-point 34 and LUMO at k-point 34
  | This appears to be a direct band gap.
  The gap value is above 0.2 eV. Unless you are using a very sparse k-point grid,
  this system is most likely an insulator or a semiconductor.

  Self-consistency cycle converged.

  End self-consistency iteration #    15       :  max(cpu_time)    wall_clock(cpu1)
  | Time for this iteration                    :        6.800 s           6.813 s
  | Charge density update                      :        4.018 s           4.023 s
  | Density mixing                             :        0.193 s           0.193 s
  | Hartree multipole update                   :        0.002 s           0.002 s
  | Hartree multipole summation                :        0.285 s           0.286 s
  | Integration                                :        2.257 s           2.263 s
  | Solution of K.-S. eqns.                    :        0.043 s           0.043 s
  | Total energy evaluation                    :        0.000 s           0.000 s
------------------------------------------------------------
  Obtaining max. number of non-zero basis functions in each batch .
  Evaluating KS electron density on previously omitted grid points, using the density matrix.
  Evaluating density matrix
  Evaluating density matrix
  Evaluating non-empirical van der Waals correction (Tkatchenko/Scheffler 2009).
  Performing Hirshfeld analysis of fragment charges and moments.
  ----------------------------------------------------------------------
  | Atom     1: C
  |   Hirshfeld charge        :     -0.00003335
  |   Free atom volume        :     38.37861207
  |   Hirshfeld volume        :     32.34372881
  |   Hirshfeld spin moment   :     -0.00000000
  |   Hirshfeld dipole vector :     -0.00004851      -0.00000017       0.00000002
  |   Hirshfeld dipole moment :      0.00004851
  |   Hirshfeld second moments:      0.08557169      -0.00000029       0.00000000
  |                                 -0.00000029       0.08539230      -0.00000000
  |                                  0.00000000      -0.00000000       0.25111929
  ----------------------------------------------------------------------
  | Atom     2: C
  |   Hirshfeld charge        :     -0.00003335
  |   Free atom volume        :     38.37861207
  |   Hirshfeld volume        :     32.34372881
  |   Hirshfeld spin moment   :     -0.00000000
  |   Hirshfeld dipole vector :      0.00004851       0.00000017      -0.00000002
  |   Hirshfeld dipole moment :      0.00004851
  |   Hirshfeld second moments:      0.08557169      -0.00000029       0.00000000
  |                                 -0.00000029       0.08539230      -0.00000000
  |                                  0.00000000      -0.00000000       0.25111929
  ----------------------------------------------------------------------

  Converging periodic supercell size for vdw calculation.

  Total energy components:
  | Sum of eigenvalues            :         -44.22002023 Ha       -1203.28797314 eV
  | XC energy correction          :         -10.81869637 Ha        -294.39170678 eV
  | XC potential correction       :          13.89965822 Ha         378.22894436 eV
  | Free-atom electrostatic energy:         -33.32004492 Ha        -906.68455390 eV
  | Hartree energy correction     :          -1.76619695 Ha         -48.06066424 eV
  | van der Waals energy corr.    :          -0.00381863 Ha          -0.10391014 eV
  | Entropy correction            :          -0.00000000 Ha          -0.00000000 eV
  | ---------------------------
  | Total energy                  :         -76.22911888 Ha       -2074.29986385 eV
  | Total energy, T -> 0          :         -76.22911888 Ha       -2074.29986385 eV  <-- do not rely on this value for anything but (periodic) metals
  | Electronic free energy        :         -76.22911888 Ha       -2074.29986385 eV

  Derived energy quantities:
  | Kinetic energy                :          75.99063748 Ha        2067.81045495 eV
  | Electrostatic energy          :        -141.39724136 Ha       -3847.61470187 eV
  | Energy correction for multipole
  | error in Hartree potential    :          -0.01137650 Ha          -0.30957023 eV
  | Sum of eigenvalues per atom                           :        -601.64398657 eV
  | Total energy (T->0) per atom                          :       -1037.14993192 eV  <-- do not rely on this value for anything but (periodic) metals
  | Electronic free energy per atom                       :       -1037.14993192 eV
  Timings for VdW correction (Tkatchenko-Scheffler 2009 or later):
  | CPU time:        1.778 s, Wall clock time:        1.777 s.

  Energy and forces in a compact form:
  | Total energy uncorrected      :         -0.207429986384609E+04 eV
  | Total energy corrected        :         -0.207429986384609E+04 eV  <-- do not rely on this value for anything but (periodic) metals
  | Electronic free energy        :         -0.207429986384609E+04 eV

  ------------------------------------ 
  Start decomposition of the XC Energy 
  ------------------------------------ 
  Hartree-Fock part   :          0.000000000 Ha              0.000000000 eV
  ------------------------------------ 
  X Energy            :        -10.398823347 Ha           -282.966380452 eV
  C Energy GGA        :         -0.419873025 Ha            -11.425326329 eV
  Total XC Energy     :        -10.818696373 Ha           -294.391706782 eV
  LDA X and C from self-consistent density 
  X Energy LDA        :         -9.434377607 Ha           -256.722476575 eV
  C Energy LDA        :         -0.796145032 Ha            -21.664208588 eV
  ------------------------------------ 
  End decomposition of the XC Energy 
  ------------------------------------ 
  Post-scf processing of Kohn-Sham eigenvalues on a denser k-point grid.
  | Using dos_kgrid_factors to calculate post-scf total density of states.
  | Electron chemical potential:    -6.230680674590 eV.
  Integrating Hamiltonian matrix: batch-based integration.
  Time summed over all CPUs for integration: real work       16.916 s, elapsed       18.117 s
  Processing batch of k-points:     1     1     1
  Processing batch of k-points:     1     2     1
  Processing batch of k-points:     2     1     1
  Processing batch of k-points:     2     2     1
  | writing perturbative DOS (shifted by electron chemical potential) to file KS_dos_total.dat
  | writing perturbative DOS (raw data) to file KS_dos_total_raw.dat

------------------------------------------------------------------------------
  Final output of selected total energy values:

  The following output summarizes some interesting total energy values
  at the end of a run (AFTER all relaxation, molecular dynamics, etc.).

  | Total energy of the DFT / Hartree-Fock s.c.f. calculation      :          -2074.299863846 eV
  | Final zero-broadening corrected energy (caution - metals only) :          -2074.299863846 eV
  | For reference only, the value of 1 Hartree used in FHI-aims is :             27.211384500 eV

  Before relying on these values, please be sure to understand exactly which
  total energy value is referred to by a given number. Different objects may
  all carry the same name 'total energy'. Definitions:

  Total energy of the DFT / Hartree-Fock s.c.f. calculation:
  | Note that this energy does not include ANY quantities calculated after the
  | s.c.f. cycle, in particular not ANY RPA, MP2, etc. many-body perturbation terms.

  Final zero-broadening corrected energy:
  | For metallic systems only, a broadening of the occupation numbers at the Fermi
  | level can be extrapolated back to zero broadening by an electron-gas inspired
  | formula. For all systems that are not real metals, this value can be
  | meaningless and should be avoided.

------------------------------------------------------------------------------

------------------------------------------------------------
          Leaving FHI-aims.
          Date     :  20220221, Time     :  151903.178

          Computational steps:
          | Number of self-consistency cycles          :           15

          Detailed time accounting                     :  max(cpu_time)    wall_clock(cpu1)
          | Total time                                 :      104.586 s         105.046 s
          | Preparation time                           :        0.166 s           0.170 s
          | Grid partitioning                          :        0.057 s           0.060 s
          | Preloading free-atom quantities on grid    :        0.006 s           0.006 s
          | Free-atom superposition energy             :        0.032 s           0.032 s
          | Total time for integrations                :       34.118 s          34.200 s
          | Total time for solution of K.-S. equations :        0.727 s           0.758 s
          | Total time for density update              :       56.922 s          57.040 s
          | Total time for mixing & preconditioning    :        3.014 s           3.026 s
          | Total time for Hartree multipole update    :        0.025 s           0.027 s
          | Total time for Hartree multipole sum       :        4.246 s           4.256 s
          | Total time for total energy evaluation     :        0.004 s           0.013 s
          | Total time for scaled ZORA corrections     :        0.000 s           0.000 s
          | Total time for vdW correction              :        1.778 s           1.777 s

          Have a nice day.
------------------------------------------------------------
