  MPI-parallelism will be employed.
------------------------------------------------------------
          Invoking FHI-aims ...
          Version 052014
          Git rev. (modified): 096c982 Merge branch master of fhiaims:/pub/localo[...]
          Compiled on 2016/12/16 at 15:22:01 on host login02.hpc.iitd.ac.in.

          When using FHI-aims, please cite the following reference:

          Volker Blum, Ralf Gehrke, Felix Hanke, Paula Havu,
          Ville Havu, Xinguo Ren, Karsten Reuter, and Matthias Scheffler,
          'Ab Initio Molecular Simulations with Numeric Atom-Centered Orbitals: FHI-aims',
          Computer Physics Communications 180, 2175-2196 (2009)

          For any questions about FHI-aims, please visit the aimsclub website
          with its forums and wiki. Contributions to both the forums and the
          wiki are warmly encouraged - they are for you, and everyone is welcome there.

------------------------------------------------------------

  Date     :  20220221, Time     :  151608.273
  Time zero on CPU 1             :   0.125340000000000E-01  s.
  Internal wall clock time zero  :           414688568.273  s.

  Using        8 parallel tasks.
  Task        0 on host csky112 reporting.
  Task        1 on host csky112 reporting.
  Task        2 on host csky112 reporting.
  Task        3 on host csky112 reporting.
  Task        4 on host csky112 reporting.
  Task        5 on host csky112 reporting.
  Task        6 on host csky112 reporting.
  Task        7 on host csky112 reporting.

  Performing system and environment tests:
  | Environment variable OMP_NUM_THREADS correctly set to 1.
  | Stacksize not measured: no C compiler
  | Checking for scalapack...
  | Testing pdtran()...
  | All pdtran() tests passed.

  Obtaining array dimensions for all initial allocations:
  
  -----------------------------------------------------------------------
  Parsing control.in (first pass over file, find array dimensions only).
  The contents of control.in will be repeated verbatim below
  unless switched off by setting 'verbatim_writeout .false.' .
  in the first line of control.in .
  -----------------------------------------------------------------------
  
    xc               pbe
    spin             collinear
    default_initial_moment hund
    relativistic     atomic_zora scalar 1e-9
    occupation_type  gaussian 0.001
    charge	0
    vdw_correction_hirshfeld
    KS_method        scalapack_fast
    mixer            pulay
    charge_mix_param  0.4
    spin_mix_param    0.6
    sc_accuracy_rho  1E-4
    sc_accuracy_eev  1E-5
    sc_accuracy_etot 1E-5
    sc_iter_limit    100
    empty_states     5
    ####### keywords for DOS########
    k_grid  7 7 1
  ##########################
  #  relax_geometry trm 5E-5
  #  sc_accuracy_forces 1e-6
  ##########################
    output dos -20 20 10000 0.01
    dos_kgrid_factors 2 2 1
  
  ################################################################################
  #
  #  FHI-aims code project
  # Volker Blum, Fritz Haber Institute Berlin, 2009
  #
  #  Suggested "tight" defaults for C atom (to be pasted into control.in file)
  #
  ################################################################################
    species        C
  #     global species definitions
      nucleus             6
      mass                12.0107
  #
      l_hartree           6
  #
      cut_pot             4.0  2.0  1.0
      basis_dep_cutoff    1e-4
  #
      radial_base         34 7.0
      radial_multiplier   2
      angular_grids specified
        division   0.2187   50
        division   0.4416  110
        division   0.6335  194
        division   0.7727  302
        division   0.8772  434
  #      division   0.9334  590
  #      division   0.9924  770
  #      division   1.0230  974
  #      division   1.5020 1202
  #     outer_grid  974
        outer_grid  434
  ################################################################################
  #
  #  Definition of "minimal" basis
  #
  ################################################################################
  #     valence basis states
      valence      2  s   2.
      valence      2  p   2.
  #     ion occupancy
      ion_occ      2  s   1.
      ion_occ      2  p   1.
  ################################################################################
  #
  #  Suggested additional basis functions. For production calculations,
  #  uncomment them one after another (the most important basis functions are
  #  listed first).
  #
  #  Constructed for dimers: 1.0 A, 1.25 A, 1.5 A, 2.0 A, 3.0 A
  #
  ################################################################################
  #  "First tier" - improvements: -1214.57 meV to -155.61 meV
       hydro 2 p 1.7
       hydro 3 d 6
       hydro 2 s 4.9
  #  "Second tier" - improvements: -67.75 meV to -5.23 meV
       hydro 4 f 9.8
       hydro 3 p 5.2
       hydro 3 s 4.3
       hydro 5 g 14.4
       hydro 3 d 6.2
  #  "Third tier" - improvements: -2.43 meV to -0.60 meV
  #     hydro 2 p 5.6
  #     hydro 2 s 1.4
  #     hydro 3 d 4.9
  #     hydro 4 f 11.2
  #  "Fourth tier" - improvements: -0.39 meV to -0.18 meV
  #     hydro 2 p 2.1
  #     hydro 5 g 16.4
  #     hydro 4 d 13.2
  #     hydro 3 s 13.6
  #     hydro 4 f 17.6
  #  Further basis functions - improvements: -0.08 meV and below
  #     hydro 3 s 2
  #     hydro 3 p 6
  #     hydro 4 d 20
  ################################################################################
  #
  # For methods that use the localized form of the "resolution of identity" for
  # the two-electron Coulomb operator (RI_method LVL), particularly Hartree-Fock and
  # hybrid density functional calculations, the highest accuracy can be obtained by
  # uncommenting the line beginning with "for_aux"  below, thus adding an extra g radial
  # function to the construction of the product basis set for the expansion.
  # See Ref. New J. Phys. 17, 093020 (2015) for more information, particularly Figs. 1 and 6.
  #
  ################################################################################
  #
  # for_aux hydro 5 g 6.0
  
  -----------------------------------------------------------------------
  Completed first pass over input file control.in .
  -----------------------------------------------------------------------
  
  
  -----------------------------------------------------------------------
  Parsing geometry.in (first pass over file, find array dimensions only).
  The contents of geometry.in will be repeated verbatim below
  unless switched off by setting 'verbatim_writeout .false.' .
  in the first line of geometry.in .
  -----------------------------------------------------------------------
  
  lattice_vector   2.1304216  -1.2299995   0.0000000
  lattice_vector   0.0000000   2.4599989   0.0000000
  lattice_vector   0.0000000   0.0000000   6.8000000
  
  atom_frac                      -0.666667  -0.333333   0.500000  C
  atom_frac                       0.666667   0.333333   0.500000  C
  
  
  -----------------------------------------------------------------------
  Completed first pass over input file geometry.in .
  -----------------------------------------------------------------------
  

  Basic array size parameters:
  | Number of species                 :        1
  | Number of atoms                   :        2
  | Number of lattice vectors         :        3
  | Max. basis fn. angular momentum   :        4
  | Max. atomic/ionic basis occupied n:        2
  | Max. number of basis fn. types    :        2
  | Max. radial fns per species/type  :        8
  | Max. logarithmic grid size        :     1277
  | Max. radial integration grid size :       69
  | Max. angular integration grid size:      434
  | Max. angular grid division number :        8
  | Radial grid for Hartree potential :     1277
  | Number of spin channels           :        2

------------------------------------------------------------
          Reading file control.in.
------------------------------------------------------------
  XC: Using PBE gradient-corrected functionals.
  Spin treatment: Spin density functional theory - collinear spins.
  Initial spin moment per atom set according to Hund's rules.
  Scalar relativistic treatment of kinetic energy: on-site free-atom approximation to ZORA.
  Occupation type: Gaussian broadening, width =   0.100000E-02 eV.
  Charge =   0.000000E+00: Neutral system requested explicitly.
  Using non-empirical van der Waals correction (Hirshfeld partitioning):
  Kohn-Sham eigenvalues and eigenfunctions calculated by the ELPA eigensolver library.
  Using pulay charge density mixing.
  Charge density mixing - mixing parameter:     0.4000
  Spin density mixing - mixing parameter:     0.6000
  Convergence accuracy of self-consistent charge density: 0.1000E-03
  Convergence accuracy of sum of eigenvalues: 0.1000E-04
  Convergence accuracy of total energy: 0.1000E-04
  Maximum number of s.-c. iterations  :   100
  Number of empty states per atom:        5
  Found k-point grid:         7         7         1
  Calculating density of states with
  | energy interval :-20.000000 20.000000
  | points & broadening : 10000  0.010000
  Found k-point grid multipliers for perturbative DOS :         2         2         1
 
  Reading configuration options for species C                   .
  | Found nuclear charge :   6.0000
  | Found atomic mass :    12.0107000000000      amu
  | Found l_max for Hartree potential  :   6
  | Found cutoff potl. onset [A], width [A], scale factor :    4.00000    2.00000    1.00000
  | Threshold for basis-dependent cutoff potential is   0.100000E-03
  | Found data for basic radial integration grid :    34 points, outermost radius =    7.000 A
  | Found multiplier for basic radial grid :   2
  | Found angular grid specification: user-specified.
  | Specified grid contains     6 separate shells.
  | Check grid settings after all constraints further below.
  | Found free-atom valence shell :  2 s   2.000
  | Found free-atom valence shell :  2 p   2.000
  | No ionic wave fns used. Skipping ion_occ.
  | No ionic wave fns used. Skipping ion_occ.
  | Found hydrogenic basis function :  2 p   1.700
  | Found hydrogenic basis function :  3 d   6.000
  | Found hydrogenic basis function :  2 s   4.900
  | Found hydrogenic basis function :  4 f   9.800
  | Found hydrogenic basis function :  3 p   5.200
  | Found hydrogenic basis function :  3 s   4.300
  | Found hydrogenic basis function :  5 g  14.400
  | Found hydrogenic basis function :  3 d   6.200
  Species C                   : Missing cutoff potential type.
  Defaulting to exp(1/x)/(1-x)^2 type cutoff potential.
  Species C : No 'logarithmic' tag. Using default grid for free atom:
  | Default logarithmic grid data [bohr] : 0.1000E-03 0.1000E+03 0.1012E+01
  Species C : On-site basis accuracy parameter (for Gram-Schmidt orthonormalisation) not specified.
  Using default value basis_acc =  0.1000000E-03.
  Species C                   : Using default innermost maximum threshold i_radial=  2 for radial functions.
  Species C                   : Default cutoff onset for free atom density etc. : 0.40000000E+01 AA.
  Species C                   : Basic radial grid will be enhanced according to radial_multiplier =   2, to contain    69 grid points.
 
  Finished reading input file 'control.in'. Consistency checks are next.
 
  Target number of points in a grid batch is not set. Defaulting to  100
  Method for grid partitioning is not set. Defaulting to parallel hash+maxmin partitioning.
  Batch size limit is not set. Defaulting to    200
  By default, will store active basis functions for each batch.
  If in need of memory, prune_basis_once .false. can be used to disable this option.
  communication_type for Hartree potential was not specified.
  Defaulting to calc_hartree .
  Pulay mixer: Number of relevant iterations not set.
  Defaulting to    8 iterations.
  Pulay mixer: Number of initial linear mixing iterations not set.
  Defaulting to    0 iterations.
  Work space size for distributed Hartree potential not set.
  Defaulting to   0.200000E+03 MB.
  Algorithm-dependent basis array size parameters:
  | n_max_pulay                         :        8
  Calculation of forces was not defined in control.in. No forces will be calculated.
  Geometry relaxation not requested: no relaxation will be performed.
  No accuracy limit for integral partition fn. given. Defaulting to 0.1000E-14.
  No threshold value for u(r) in integrations given. Defaulting to 0.1000E-05.
  No accuracy for occupation numbers given. Defaulting to 0.1000E-07.
  No threshold value for occupation numbers given. Defaulting to 0.0000E+00.
  No accuracy for fermi level given. Defaulting to 0.1000E-19.
  Maximum # of iterations to find E_F not set. Defaulting to  200.
 * You have    49 k-points in your system, but only     8 MPI-tasks available.
 * In this case using ScaLAPACK is not necessary / supported.
 * Switching to default eigenvalue solver (lapack_fast) instead.
  Will not use alltoall communication since running on < 1024 CPUs.
  Threshold for basis singularities not set.
  Default threshold for basis singularities: 0.1000E-04
  partition_type (choice of integration weights) for integrals was not specified.
  | Using a version of the partition function of Stratmann and coworkers ('stratmann_smoother').
  | At each grid point, the set of atoms used to build the partition table is smoothly restricted to
  | only those atoms whose free-atom density would be non-zero at that grid point.
  Partitioning for Hartree potential was not defined. Using partition_type for integrals.
  | Adjusted default value of keyword multip_moments_threshold to:       0.10000000E-11
  | This value may affect high angular momentum components of the Hartree potential in periodic systems.
  Angular momentum expansion for Kerker preconditioner not set explicitly.
  | Using default value of   0
  No explicit requirement for turning off preconditioner.
  | By default, it will be turned off when the charge convergence reaches
  | sc_accuracy_rho  =   0.100000E-03
  | sc_accuracy_eev  =   0.100000E-04
  | sc_accuracy_etot =   0.100000E-04
  No special mixing parameter while Kerker preconditioner is on.
  Using default: charge_mix_param =     0.4000.
  No q(lm)/r^(l+1) cutoff set for long-range Hartree potential.
  | Using default value of  0.100000E-09 .
  | Verify using the multipole_threshold keyword.
  Defaulting to new monopole extrapolation.
  Density update method: automatic selection selected.
  Using density matrix based charge density update.
  Using density matrix based charge density update.
  Using packed matrix style: index .
  Defaulting to use time-reversal symmetry for k-point grid.
  Using the following vdw_convergence_threshold for supercell sums
  over the Tkatchenko-Scheffler correction: 0.100000E-04 eV.
------------------------------------------------------------


------------------------------------------------------------
          Reading geometry description geometry.in.
------------------------------------------------------------
  Input structure read successfully.
  The structure contains        2 atoms,  and a total of         12.000 electrons.

  Input geometry:
  | Unit cell:
  |         2.130422        -1.229999         0.000000
  |         0.000000         2.459999         0.000000
  |         0.000000         0.000000         6.800000
  | Atomic structure:
  |       Atom                x [A]            y [A]            z [A]
  |    1: Species C             -1.420282         0.000001         3.400000
  |    2: Species C              1.420282        -0.000001         3.400000
  |

  | The smallest distance between any two atoms is         1.42027960 AA.
  |
  | The first atom of this pair is atom number                      2 .
  | The second atom of this pair is atom number                     1 .
  | Wigner-Seitz cell of the first atom image           1     0     0 .
  | (The Wigner-Seitz cell of the second atom is 0 0 0  by definition.)

  Quantities derived from the lattice vectors:
  | Reciprocal lattice vector 1:  2.949268 -0.000000  0.000000
  | Reciprocal lattice vector 2:  1.474634  2.554142  0.000000
  | Reciprocal lattice vector 3:  0.000000  0.000000  0.923998
  | Unit cell volume                               :   0.356377E+02  A^3

  Initial moments and charges:
  |  Atom   Moment         Charge        Species
  |     1  (Hund's rule)   0.000000E+00   C
  |     2  (Hund's rule)   0.000000E+00   C

  Structure-dependent array size parameters: 
  | Number of distinct atom types in initial rho :        1
  | Maximum number of distinct radial functions  :       11
  | Maximum number of basis functions            :       78
  | Number of Kohn-Sham states (occupied + empty):       11
------------------------------------------------------------

------------------------------------------------------------
          Preparing all fixed parts of the calculation.
------------------------------------------------------------
  Determining machine precision:
    2.225073858507201E-308
  Setting up grids for atomic and cluster calculations.

  Creating wave function, potential, and density for free atoms.

  Species: C

  List of occupied orbitals and eigenvalues:
    n    l              occ      energy [Ha]    energy [eV]
    1    0           2.0000       -10.049212      -273.4530
    2    0           2.0000        -0.504761       -13.7352
    2    1           2.0000        -0.193631        -5.2690

  Spin-polarized or charged system:
  Charge density initialized according to selected moments and charges.

  Creating spin-polarized density from free atoms.

  Species: C
  Charge:   0.000000
  applying Hund's rules ...

  List of occupied orbitals and eigenvalues:
    n    l      energy [Ha]    energy [eV]    occupation
  Spin-up
    1    0       -10.040873      -273.2261     1.00000000
    2    0        -0.537730       -14.6324     1.00000000
    2    1        -0.223635        -6.0854     2.00000000
  Spin-down
    1    0       -10.011077      -272.4153     1.00000000
    2    0        -0.436278       -11.8717     1.00000000
    2    1        -0.132089        -3.5943     0.00000000

  Creating fixed part of basis set: Ionic, confined, hydrogenic.
 
  C                    hydrogenic:
 
  List of hydrogenic basis orbitals: 
    n    l      effective z      eigenvalue [eV]  inner max. [A]     outer max. [A]     outer radius [A]   
    2    1         1.700000        -9.8152           1.245706           1.245706           5.401630
    3    2         6.000000       -54.4226           0.792453           0.792453           4.178599
    2    0         4.900000       -81.6681           0.082559           0.562749           3.353238
    4    3         9.800000       -81.6681           0.863254           0.863254           4.028125
    3    1         5.200000       -40.8774           0.305389           1.215618           4.898362
    3    0         4.300000       -27.9508           0.091041           1.610311           5.401630
    5    4        14.400000      -112.8510           0.917666           0.917666           3.883070
    3    2         6.200000       -58.1113           0.763917           0.763917           4.077671
 

  Adding cutoff potential to free-atom effective potential.
  Creating atomic-like basis functions for current effective potential.

  Species C                   :

  List of atomic basis orbitals and eigenvalues:
    n    l      energy [Ha]    energy [eV]    outer radius [A]
    1    0       -10.049212      -273.4530       1.934409
    2    0        -0.504761       -13.7352       5.271162
    2    1        -0.193631        -5.2690       5.401630

  Assembling full basis from fixed parts.
  | Species C :   atomic orbital   1 s accepted.
  | Species C :    hydro orbital   2 s accepted.
  | Species C :   atomic orbital   2 s accepted.
  | Species C :    hydro orbital   3 s accepted.
  | Species C :    hydro orbital   3 p accepted.
  | Species C :   atomic orbital   2 p accepted.
  | Species C :    hydro orbital   2 p accepted.
  | Species C :    hydro orbital   3 d accepted.
  | Species C :    hydro orbital   3 d accepted.
  | Species C :    hydro orbital   4 f accepted.
  | Species C :    hydro orbital   5 g accepted.
 
  Basis size parameters after reduction:
  | Total number of radial functions:       11
  | Total number of basis functions :       78
 
  Testing on-site integration grid accuracy.
  |  Species  Function  <phi|h_atom|phi> (log., in eV)  <phi|h_atom|phi> (rad., in eV)
           1        1               -273.4529725981               -273.4529710451
           1        2                -10.7721037329                -10.7721022102
           1        3                 17.6044132585                 17.6044162052
           1        4                 53.7706460564                 53.7706913681
           1        5                 15.0973290351                 15.0973256011
           1        6                  3.8545134677                  3.8545724657
           1        7                 12.1156992586                 12.1182024423
           1        8                 29.4352039288                 29.4352041805
           1        9                 54.8741144697                 54.8740268719
           1       10                 59.3556032036                 59.3556031370
           1       11                 93.4551837140                 93.4551837996

  Preparing densities etc. for the partition functions (integrals / Hartree potential).

  Preparations completed.
  max(cpu_time)          :      0.159 s.
  Wall clock time (cpu1) :      0.161 s.
------------------------------------------------------------

------------------------------------------------------------
          Begin self-consistency loop: Initialization.

          Date     :  20220221, Time     :  151608.496
------------------------------------------------------------

  Initializing index lists of integration centers etc. from given atomic structure:
  Mapping all atomic coordinates to central unit cell.

  Initializing the k-points
          Using symmetry for reducing the k-points
  | k-points reduced from:       49 to       25
  | Number of k-points                             :        25
  The eigenvectors in the calculations are COMPLEX.
  | K-points in task   0:         3
  | K-points in task   1:         4
  | K-points in task   2:         3
  | K-points in task   3:         3
  | K-points in task   4:         3
  | K-points in task   5:         3
  | K-points in task   6:         3
  | K-points in task   7:         3
  | Number of basis functions in the Hamiltonian integrals :      3472
  | Number of basis functions in a single unit cell        :        78
  | Number of centers in hartree potential         :       646
  | Number of centers in hartree multipole         :       548
  | Number of centers in electron density summation:       428
  | Number of centers in basis integrals           :       456
  | Number of centers in integrals                 :       136
  | Consuming         91 KiB for k_phase.
  | Number of super-cells :                 234
  | Size of matrix packed + index :      284874
  Perform CPU consistency test for lattice for partition grid
  Perform CPU consistency test for map_to_center_cell_matrix for partition grid
  Partitioning the integration grid into batches with parallel hashing+maxmin method.
  | Number of batches:      496
  | Maximal batch size:     108
  | Minimal batch size:      50
  | Average batch size:      72.895
  | Standard deviation of batch sizes:      20.938

  Integration load balanced across     8 MPI tasks.
  Work distribution over tasks is as follows:
  Task     0 has       4522 integration points.
  Task     1 has       4521 integration points.
  Task     2 has       4485 integration points.
  Task     3 has       4502 integration points.
  Task     4 has       4502 integration points.
  Task     5 has       4538 integration points.
  Task     6 has       4549 integration points.
  Task     7 has       4537 integration points.
  Initializing partition tables, free-atom densities, potentials, etc. across the integration grid (initialize_grid_storage).
  | initialize_grid_storage: Actual outermost partition radius vs. multipole_radius_free
  | (-- VB: in principle, multipole_radius_free should be larger, hence this output)
  | Species        1: outer_partition_radius =              6.000000000000000 AA, multipole_radius_free =              6.029870734432609 AA.
  | Original list of interatomic distances with         456 x        456 entries is created.
  | Net number of integration points:    36156
  | of which are non-zero points    :    26826
  | Numerical average free-atom electrostatic potential    :     -6.92761138 eV
  Obtaining max. number of non-zero basis functions in each batch (get_n_compute_maxes).
  | Maximal number of non-zero basis functions:     1323 in task     0
  | Maximal number of non-zero basis functions:     1222 in task     1
  | Maximal number of non-zero basis functions:     1309 in task     2
  | Maximal number of non-zero basis functions:     1309 in task     3
  | Maximal number of non-zero basis functions:     1309 in task     4
  | Maximal number of non-zero basis functions:     1309 in task     5
  | Maximal number of non-zero basis functions:     1318 in task     6
  | Maximal number of non-zero basis functions:     1309 in task     7
  Integrating Hamiltonian matrix: batch-based integration.
  Time summed over all CPUs for integration: real work       14.061 s, elapsed       14.315 s
  Integrating overlap matrix.
  Time summed over all CPUs for integration: real work        5.825 s, elapsed        5.927 s
  Decreasing sparse matrix size:
   Tolerance:  9.999999824516700E-014
   Hamiltonian matrix
  | Array has   179225 nonzero elements out of   284874 elements
  | Sparsity factor is 0.371
   Overlap matrix
  | Array has   161147 nonzero elements out of   284874 elements
  | Sparsity factor is 0.434
  New size of hamiltonian matrix:      180040

  Updating Kohn-Sham eigenvalues, eigenvectors, occupation numbers, and Fermi level.
  Solving generalized eigenproblem
  Transforming overlap matrix and checking for singularities.
  Overlap matrix is nonsingular at first k-point:
  | Lowest eigenvalue:  0.153553E-03
  Determining occupation numbers for Kohn-Sham eigenstates.
  | Chemical potential (Fermi level) in eV                 : -.81222065E+01
  | Error in electron count due to remaining E_F inaccuracy: -.74606987E-13
  | Maximum occupation number of highest empty state:  0.00E+00

  Writing Kohn-Sham eigenvalues.

  Spin-up eigenvalues:
  K-point:       1 at    0.000000    0.000000    0.000000 (in units of recip. lattice)

  State    Occupation    Eigenvalue [Ha]    Eigenvalue [eV]
      1       1.00000         -10.181848         -277.06218
      2       1.00000         -10.180882         -277.03589
      3       1.00000          -1.102207          -29.99257
      4       1.00000          -0.620114          -16.87417
      5       1.00000          -0.528020          -14.36816
      6       1.00000          -0.528017          -14.36806
      7       0.00000          -0.085400           -2.32384
      8       0.00000          -0.085394           -2.32369
      9       0.00000          -0.024009           -0.65332
     10       0.00000           0.040709            1.10776
     11       0.00000           0.048401            1.31707

  Spin-down eigenvalues:
  K-point:       1 at    0.000000    0.000000    0.000000 (in units of recip. lattice)

  State    Occupation    Eigenvalue [Ha]    Eigenvalue [eV]
      1       1.00000         -10.149912         -276.19315
      2       1.00000         -10.148980         -276.16780
      3       1.00000          -0.975509          -26.54495
      4       1.00000          -0.506695          -13.78788
      5       1.00000          -0.396552          -10.79073
      6       1.00000          -0.396548          -10.79063
      7       0.00000           0.040540            1.10314
      8       0.00000           0.040544            1.10325
      9       0.00000           0.041938            1.14118
     10       0.00000           0.094711            2.57721
     11       0.00000           0.163747            4.45578

  Current spin moment of the entire structure :
  | N = N_up - N_down (sum over all k points):         0.24000
  | S (sum over all k points)                :         0.12000

  What follows are estimated values for band gap, HOMO, LUMO, etc.
  | They are estimated on a discrete k-point grid and not necessarily exact.
  | For converged numbers, create a DOS and/or band structure plot on a denser k-grid.

  Highest occupied state (VBM) at     -8.17823024 eV (relative to internal zero)
  | Occupation number:      1.00000000
  | K-point:      12 at    0.285714    0.428571    0.000000 (in units of recip. lattice)
  | Spin channel:        1

  Lowest unoccupied state (CBM) at    -7.97962048 eV (relative to internal zero)
  | Occupation number:      0.00000000
  | K-point:      15 at    0.428571    0.142857    0.000000 (in units of recip. lattice)
  | Spin channel:        1

  ESTIMATED overall HOMO-LUMO gap:      0.19860976 eV between HOMO at k-point 12 and LUMO at k-point 15
  | This appears to be an indirect band gap.
  | Smallest direct gap :      0.30580195 eV for k_point 16 at    0.428571    0.142857    0.000000 (in units of recip. lattice)
  | Direct gap HOMO spin channel :     1
  | Direct gap LUMO spin channel :     2
  The gap value is rather small. This may be a metal or a small-gap semiconductor.
  Since we use a finite k-point grid, a DOS and/or band structure plot is required
  for an unambiguous assignment.
  Calculating total energy contributions from superposition of free atom densities.

  Total energy components:
  | Sum of eigenvalues            :         -45.93566749 Ha       -1249.97311030 eV
  | XC energy correction          :         -10.83312258 Ha        -294.78426400 eV
  | XC potential correction       :          13.93338521 Ha         379.14670243 eV
  | Free-atom electrostatic energy:         -33.32004492 Ha        -906.68455390 eV
  | Hartree energy correction     :           0.00000000 Ha           0.00000000 eV
  | van der Waals energy corr.    :           0.00000000 Ha           0.00000000 eV
  | Entropy correction            :           0.00000000 Ha           0.00000000 eV
  | ---------------------------
  | Total energy                  :         -76.15544978 Ha       -2072.29522576 eV
  | Total energy, T -> 0          :         -76.15544978 Ha       -2072.29522576 eV  <-- do not rely on this value for anything but (periodic) metals
  | Electronic free energy        :         -76.15544978 Ha       -2072.29522576 eV

  Derived energy quantities:
  | Kinetic energy                :          76.18603884 Ha        2073.12759632 eV
  | Electrostatic energy          :        -141.50836603 Ha       -3850.63855809 eV
  | Energy correction for multipole
  | error in Hartree potential    :           0.00000000 Ha           0.00000000 eV
  | Sum of eigenvalues per atom                           :        -624.98655515 eV
  | Total energy (T->0) per atom                          :       -1036.14761288 eV  <-- do not rely on this value for anything but (periodic) metals
  | Electronic free energy per atom                       :       -1036.14761288 eV
  Initialize hartree_potential_storage
  Max. number of atoms included in rho_multipole:            2

  End scf initialization - timings             :  max(cpu_time)    wall_clock(cpu1)
  | Time for scf. initialization               :        3.065 s           3.071 s
  | Boundary condition initialization          :        0.070 s           0.070 s
  | Integration                                :        2.545 s           2.551 s
  | Solution of K.-S. eqns.                    :        0.042 s           0.042 s
  | Grid partitioning                          :        0.056 s           0.056 s
  | Preloading free-atom quantities on grid    :        0.005 s           0.005 s
  | Free-atom superposition energy             :        0.031 s           0.032 s
  | Total energy evaluation                    :        0.000 s           0.000 s
------------------------------------------------------------

------------------------------------------------------------
          Begin self-consistency iteration #    1

  Date     :  20220221, Time     :  151611.568
------------------------------------------------------------
  Evaluating new KS density using the density matrix
  Evaluating density matrix
  Evaluating density matrix
  Time summed over all CPUs for getting density from density matrix: real work       25.641 s, elapsed       26.110 s
  Integration grid: deviation in total charge (<rho> - N_e) =  -2.405867E-06
  | <rho_up-rho_dn> = N_up-N_dn =     -3.5102; <|rho_up-rho_dn|> =      3.5102
  Pulay mixing of updated and previous charge densities.

  Evaluating partitioned Hartree potential by multipole expansion.
  | Analytical far-field extrapolation by fixed multipoles:
  | Hartree multipole sum: apparent total charge =   0.347061E-03
  Summing up the Hartree potential.
  | Estimated reciprocal-space cutoff momentum G_max:         3.32253784 bohr^-1 .
  | Reciprocal lattice points for long-range Hartree potential:     150
  Time summed over all CPUs for potential: real work        2.077 s, elapsed        2.132 s
  | RMS charge density error from multipole expansion :   0.334435E-02
  | Average real-space part of the electrostatic potential :      0.12693929 eV

  Integrating Hamiltonian matrix: batch-based integration.
  Time summed over all CPUs for integration: real work       13.310 s, elapsed       13.548 s

  Updating Kohn-Sham eigenvalues, eigenvectors, occupation numbers, and Fermi level.
  Solving generalized eigenproblem
  Determining occupation numbers for Kohn-Sham eigenstates.
  | Chemical potential (Fermi level) in eV                 : -.65459182E+01
  | Error in electron count due to remaining E_F inaccuracy: -.74606987E-13
  | Maximum occupation number of highest empty state:  0.00E+00

  Writing Kohn-Sham eigenvalues.

  Spin-up eigenvalues:
  K-point:       1 at    0.000000    0.000000    0.000000 (in units of recip. lattice)

  State    Occupation    Eigenvalue [Ha]    Eigenvalue [eV]
      1       1.00000         -10.059595         -273.73552
      2       1.00000         -10.058624         -273.70907
      3       1.00000          -1.014423          -27.60387
      4       1.00000          -0.558458          -15.19641
      5       1.00000          -0.418506          -11.38813
      6       1.00000          -0.418503          -11.38805
      7       0.00000          -0.011084           -0.30162
      8       0.00000           0.009561            0.26018
      9       0.00000           0.009567            0.26033
     10       0.00000           0.054707            1.48867
     11       0.00000           0.127310            3.46429

  Spin-down eigenvalues:
  K-point:       1 at    0.000000    0.000000    0.000000 (in units of recip. lattice)

  State    Occupation    Eigenvalue [Ha]    Eigenvalue [eV]
      1       1.00000         -10.039364         -273.18499
      2       1.00000         -10.038412         -273.15909
      3       1.00000          -0.924066          -25.14511
      4       1.00000          -0.471634          -12.83382
      5       1.00000          -0.334786           -9.11000
      6       1.00000          -0.334783           -9.10992
      7       0.00000           0.025551            0.69529
      8       0.00000           0.071657            1.94989
      9       0.00000           0.098258            2.67373
     10       0.00000           0.098262            2.67384
     11       0.00000           0.221484            6.02688

  Current spin moment of the entire structure :
  | N = N_up - N_down (sum over all k points):         0.00000
  | S (sum over all k points)                :         0.00000

  What follows are estimated values for band gap, HOMO, LUMO, etc.
  | They are estimated on a discrete k-point grid and not necessarily exact.
  | For converged numbers, create a DOS and/or band structure plot on a denser k-grid.

  Highest occupied state (VBM) at     -6.74368110 eV (relative to internal zero)
  | Occupation number:      1.00000000
  | K-point:      23 at    0.714286    0.714286    0.000000 (in units of recip. lattice)
  | Spin channel:        2

  Lowest unoccupied state (CBM) at    -6.23025529 eV (relative to internal zero)
  | Occupation number:      0.00000000
  | K-point:      23 at    0.714286    0.714286    0.000000 (in units of recip. lattice)
  | Spin channel:        1

  ESTIMATED overall HOMO-LUMO gap:      0.51342581 eV between HOMO at k-point 23 and LUMO at k-point 23
  | This appears to be a direct band gap.
  The gap value is above 0.2 eV. Unless you are using a very sparse k-point grid,
  this system is most likely an insulator or a semiconductor.

  Total energy components:
  | Sum of eigenvalues            :         -44.90230677 Ha       -1221.85393436 eV
  | XC energy correction          :         -10.83480952 Ha        -294.83016788 eV
  | XC potential correction       :          13.92788462 Ha         378.99702355 eV
  | Free-atom electrostatic energy:         -33.32004492 Ha        -906.68455390 eV
  | Hartree energy correction     :          -1.04260014 Ha         -28.37059323 eV
  | van der Waals energy corr.    :           0.00000000 Ha           0.00000000 eV
  | Entropy correction            :           0.00000000 Ha           0.00000000 eV
  | ---------------------------
  | Total energy                  :         -76.17187673 Ha       -2072.74222583 eV
  | Total energy, T -> 0          :         -76.17187673 Ha       -2072.74222583 eV  <-- do not rely on this value for anything but (periodic) metals
  | Electronic free energy        :         -76.17187673 Ha       -2072.74222583 eV

  Derived energy quantities:
  | Kinetic energy                :          76.31379876 Ha        2076.60412073 eV
  | Electrostatic energy          :        -141.65086597 Ha       -3854.51617868 eV
  | Energy correction for multipole
  | error in Hartree potential    :          -0.00490411 Ha          -0.13344751 eV
  | Sum of eigenvalues per atom                           :        -610.92696718 eV
  | Total energy (T->0) per atom                          :       -1036.37111291 eV  <-- do not rely on this value for anything but (periodic) metals
  | Electronic free energy per atom                       :       -1036.37111291 eV

  Self-consistency convergence accuracy:
  | Change of charge/spin density : 0.2293E+00 0.4901E+00
  | Change of sum of eigenvalues  : 0.2812E+02 eV
  | Change of total energy        : -.4470E+00 eV

  End self-consistency iteration #     1       :  max(cpu_time)    wall_clock(cpu1)
  | Time for this iteration                    :        5.461 s           5.474 s
  | Charge density update                      :        3.269 s           3.276 s
  | Density mixing & preconditioning           :        0.202 s           0.202 s
  | Hartree multipole update                   :        0.002 s           0.002 s
  | Hartree multipole summation                :        0.271 s           0.272 s
  | Integration                                :        1.696 s           1.700 s
  | Solution of K.-S. eqns.                    :        0.020 s           0.020 s
  | Total energy evaluation                    :        0.000 s           0.000 s
------------------------------------------------------------

------------------------------------------------------------
          Begin self-consistency iteration #    2

  Date     :  20220221, Time     :  151617.043
------------------------------------------------------------
  Evaluating new KS density using the density matrix
  Evaluating density matrix
  Evaluating density matrix
  Time summed over all CPUs for getting density from density matrix: real work       25.494 s, elapsed       26.044 s
  Integration grid: deviation in total charge (<rho> - N_e) =   3.471207E-04
  | <rho_up-rho_dn> = N_up-N_dn =     -2.8731; <|rho_up-rho_dn|> =      2.8731
  Pulay mixing of updated and previous charge densities.

  Evaluating partitioned Hartree potential by multipole expansion.
  | Analytical far-field extrapolation by fixed multipoles:
  | Hartree multipole sum: apparent total charge =   0.495950E-03
  Summing up the Hartree potential.
  Time summed over all CPUs for potential: real work        2.148 s, elapsed        2.204 s
  | RMS charge density error from multipole expansion :   0.855280E-02
  | Average real-space part of the electrostatic potential :      0.27694935 eV

  Integrating Hamiltonian matrix: batch-based integration.
  Time summed over all CPUs for integration: real work       13.295 s, elapsed       13.506 s

  Updating Kohn-Sham eigenvalues, eigenvectors, occupation numbers, and Fermi level.
  Solving generalized eigenproblem
  Determining occupation numbers for Kohn-Sham eigenstates.
  | Chemical potential (Fermi level) in eV                 : -.62059596E+01
  | Error in electron count due to remaining E_F inaccuracy: -.74606987E-13
  | Maximum occupation number of highest empty state:  0.00E+00

  Current spin moment of the entire structure :
  | N = N_up - N_down (sum over all k points):         0.00000
  | S (sum over all k points)                :         0.00000

  What follows are estimated values for band gap, HOMO, LUMO, etc.
  | They are estimated on a discrete k-point grid and not necessarily exact.
  | For converged numbers, create a DOS and/or band structure plot on a denser k-grid.

  Highest occupied state (VBM) at     -6.40360541 eV (relative to internal zero)
  | Occupation number:      1.00000000
  | K-point:      12 at    0.285714    0.428571    0.000000 (in units of recip. lattice)
  | Spin channel:        2

  Lowest unoccupied state (CBM) at    -3.64104071 eV (relative to internal zero)
  | Occupation number:      0.00000000
  | K-point:       7 at    0.142857    0.428571    0.000000 (in units of recip. lattice)
  | Spin channel:        1

  ESTIMATED overall HOMO-LUMO gap:      2.76256470 eV between HOMO at k-point 12 and LUMO at k-point 7
  | This appears to be an indirect band gap.
  | Smallest direct gap :      2.77809203 eV for k_point 23 at    0.142857    0.428571    0.000000 (in units of recip. lattice)
  | Direct gap HOMO spin channel :     2
  | Direct gap LUMO spin channel :     1
  The gap value is above 0.2 eV. Unless you are using a very sparse k-point grid,
  this system is most likely an insulator or a semiconductor.

  Total energy components:
  | Sum of eigenvalues            :         -43.87279942 Ha       -1193.83961414 eV
  | XC energy correction          :         -10.85552223 Ha        -295.39378929 eV
  | XC potential correction       :          13.94794931 Ha         379.54301164 eV
  | Free-atom electrostatic energy:         -33.32004492 Ha        -906.68455390 eV
  | Hartree energy correction     :          -2.12382537 Ha         -57.79222869 eV
  | van der Waals energy corr.    :           0.00000000 Ha           0.00000000 eV
  | Entropy correction            :           0.00000000 Ha           0.00000000 eV
  | ---------------------------
  | Total energy                  :         -76.22424263 Ha       -2074.16717438 eV
  | Total energy, T -> 0          :         -76.22424263 Ha       -2074.16717438 eV  <-- do not rely on this value for anything but (periodic) metals
  | Electronic free energy        :         -76.22424263 Ha       -2074.16717438 eV

  Derived energy quantities:
  | Kinetic energy                :          76.13479404 Ha        2071.73315432 eV
  | Electrostatic energy          :        -141.50351444 Ha       -3850.50653941 eV
  | Energy correction for multipole
  | error in Hartree potential    :          -0.01187482 Ha          -0.32313031 eV
  | Sum of eigenvalues per atom                           :        -596.91980707 eV
  | Total energy (T->0) per atom                          :       -1037.08358719 eV  <-- do not rely on this value for anything but (periodic) metals
  | Electronic free energy per atom                       :       -1037.08358719 eV

  Self-consistency convergence accuracy:
  | Change of charge/spin density : 0.1232E+00 0.3631E+00
  | Change of sum of eigenvalues  : 0.2801E+02 eV
  | Change of total energy        : -.1425E+01 eV

  End self-consistency iteration #     2       :  max(cpu_time)    wall_clock(cpu1)
  | Time for this iteration                    :        5.458 s           5.471 s
  | Charge density update                      :        3.259 s           3.267 s
  | Density mixing & preconditioning           :        0.205 s           0.205 s
  | Hartree multipole update                   :        0.002 s           0.002 s
  | Hartree multipole summation                :        0.280 s           0.280 s
  | Integration                                :        1.691 s           1.695 s
  | Solution of K.-S. eqns.                    :        0.020 s           0.020 s
  | Total energy evaluation                    :        0.000 s           0.001 s
------------------------------------------------------------

------------------------------------------------------------
          Begin self-consistency iteration #    3

  Date     :  20220221, Time     :  151622.519
------------------------------------------------------------
  Evaluating new KS density using the density matrix
  Evaluating density matrix
  Evaluating density matrix
  Time summed over all CPUs for getting density from density matrix: real work       25.492 s, elapsed       26.049 s
  Integration grid: deviation in total charge (<rho> - N_e) =   4.965710E-04
  | <rho_up-rho_dn> = N_up-N_dn =     -0.3419; <|rho_up-rho_dn|> =      0.3613
  Pulay mixing of updated and previous charge densities.

  Evaluating partitioned Hartree potential by multipole expansion.
  | Analytical far-field extrapolation by fixed multipoles:
  | Hartree multipole sum: apparent total charge =   0.724008E-04
  Summing up the Hartree potential.
  Time summed over all CPUs for potential: real work        2.128 s, elapsed        2.185 s
  | RMS charge density error from multipole expansion :   0.820138E-02
  | Average real-space part of the electrostatic potential :      0.25550987 eV

  Integrating Hamiltonian matrix: batch-based integration.
  Time summed over all CPUs for integration: real work       13.272 s, elapsed       13.490 s

  Updating Kohn-Sham eigenvalues, eigenvectors, occupation numbers, and Fermi level.
  Solving generalized eigenproblem
  Determining occupation numbers for Kohn-Sham eigenstates.
  | Chemical potential (Fermi level) in eV                 : -.60464836E+01
  | Error in electron count due to remaining E_F inaccuracy: -.74606987E-13
  | Maximum occupation number of highest empty state:  0.00E+00

  Current spin moment of the entire structure :
  | N = N_up - N_down (sum over all k points):         0.00000
  | S (sum over all k points)                :         0.00000

  What follows are estimated values for band gap, HOMO, LUMO, etc.
  | They are estimated on a discrete k-point grid and not necessarily exact.
  | For converged numbers, create a DOS and/or band structure plot on a denser k-grid.

  Highest occupied state (VBM) at     -6.75369874 eV (relative to internal zero)
  | Occupation number:      1.00000000
  | K-point:      23 at    0.714286    0.714286    0.000000 (in units of recip. lattice)
  | Spin channel:        2

  Lowest unoccupied state (CBM) at    -3.96686016 eV (relative to internal zero)
  | Occupation number:      0.00000000
  | K-point:      23 at    0.714286    0.714286    0.000000 (in units of recip. lattice)
  | Spin channel:        1

  ESTIMATED overall HOMO-LUMO gap:      2.78683858 eV between HOMO at k-point 23 and LUMO at k-point 23
  | This appears to be a direct band gap.
  The gap value is above 0.2 eV. Unless you are using a very sparse k-point grid,
  this system is most likely an insulator or a semiconductor.

  Total energy components:
  | Sum of eigenvalues            :         -44.13018470 Ha       -1200.84342399 eV
  | XC energy correction          :         -10.82874174 Ha        -294.66505527 eV
  | XC potential correction       :          13.91274152 Ha         378.58495886 eV
  | Free-atom electrostatic energy:         -33.32004492 Ha        -906.68455390 eV
  | Hartree energy correction     :          -1.85835710 Ha         -50.56846954 eV
  | van der Waals energy corr.    :           0.00000000 Ha           0.00000000 eV
  | Entropy correction            :           0.00000000 Ha           0.00000000 eV
  | ---------------------------
  | Total energy                  :         -76.22458695 Ha       -2074.17654383 eV
  | Total energy, T -> 0          :         -76.22458695 Ha       -2074.17654383 eV  <-- do not rely on this value for anything but (periodic) metals
  | Electronic free energy        :         -76.22458695 Ha       -2074.17654383 eV

  Derived energy quantities:
  | Kinetic energy                :          76.03027911 Ha        2068.88915862 eV
  | Electrostatic energy          :        -141.42612432 Ha       -3848.40064719 eV
  | Energy correction for multipole
  | error in Hartree potential    :          -0.01138123 Ha          -0.30969898 eV
  | Sum of eigenvalues per atom                           :        -600.42171199 eV
  | Total energy (T->0) per atom                          :       -1037.08827192 eV  <-- do not rely on this value for anything but (periodic) metals
  | Electronic free energy per atom                       :       -1037.08827192 eV

  Self-consistency convergence accuracy:
  | Change of charge/spin density : 0.4395E-01 0.4458E-01
  | Change of sum of eigenvalues  : -.7004E+01 eV
  | Change of total energy        : -.9369E-02 eV

  End self-consistency iteration #     3       :  max(cpu_time)    wall_clock(cpu1)
  | Time for this iteration                    :        5.448 s           5.460 s
  | Charge density update                      :        3.259 s           3.266 s
  | Density mixing & preconditioning           :        0.202 s           0.202 s
  | Hartree multipole update                   :        0.001 s           0.001 s
  | Hartree multipole summation                :        0.277 s           0.278 s
  | Integration                                :        1.686 s           1.690 s
  | Solution of K.-S. eqns.                    :        0.020 s           0.021 s
  | Total energy evaluation                    :        0.000 s           0.001 s
------------------------------------------------------------

------------------------------------------------------------
          Begin self-consistency iteration #    4

  Date     :  20220221, Time     :  151627.981
------------------------------------------------------------
  Evaluating new KS density using the density matrix
  Evaluating density matrix
  Evaluating density matrix
  Time summed over all CPUs for getting density from density matrix: real work       25.536 s, elapsed       26.092 s
  Integration grid: deviation in total charge (<rho> - N_e) =   7.296460E-05
  | <rho_up-rho_dn> = N_up-N_dn =     -0.2918; <|rho_up-rho_dn|> =      0.2923
  Pulay mixing of updated and previous charge densities.

  Evaluating partitioned Hartree potential by multipole expansion.
  | Analytical far-field extrapolation by fixed multipoles:
  | Hartree multipole sum: apparent total charge =  -0.595963E-04
  Summing up the Hartree potential.
  Time summed over all CPUs for potential: real work        2.124 s, elapsed        2.180 s
  | RMS charge density error from multipole expansion :   0.822080E-02
  | Average real-space part of the electrostatic potential :      0.24641349 eV

  Integrating Hamiltonian matrix: batch-based integration.
  Time summed over all CPUs for integration: real work       12.965 s, elapsed       13.125 s

  Updating Kohn-Sham eigenvalues, eigenvectors, occupation numbers, and Fermi level.
  Solving generalized eigenproblem
  Determining occupation numbers for Kohn-Sham eigenstates.
  | Chemical potential (Fermi level) in eV                 : -.61003359E+01
  | Error in electron count due to remaining E_F inaccuracy: -.74606987E-13
  | Maximum occupation number of highest empty state:  0.00E+00

  Current spin moment of the entire structure :
  | N = N_up - N_down (sum over all k points):         0.00000
  | S (sum over all k points)                :         0.00000

  What follows are estimated values for band gap, HOMO, LUMO, etc.
  | They are estimated on a discrete k-point grid and not necessarily exact.
  | For converged numbers, create a DOS and/or band structure plot on a denser k-grid.

  Highest occupied state (VBM) at     -7.01704643 eV (relative to internal zero)
  | Occupation number:      1.00000000
  | K-point:      23 at    0.714286    0.714286    0.000000 (in units of recip. lattice)
  | Spin channel:        2

  Lowest unoccupied state (CBM) at    -4.01375541 eV (relative to internal zero)
  | Occupation number:      0.00000000
  | K-point:      23 at    0.714286    0.714286    0.000000 (in units of recip. lattice)
  | Spin channel:        1

  ESTIMATED overall HOMO-LUMO gap:      3.00329103 eV between HOMO at k-point 23 and LUMO at k-point 23
  | This appears to be a direct band gap.
  The gap value is above 0.2 eV. Unless you are using a very sparse k-point grid,
  this system is most likely an insulator or a semiconductor.

  Total energy components:
  | Sum of eigenvalues            :         -44.25268553 Ha       -1204.17684099 eV
  | XC energy correction          :         -10.81538909 Ha        -294.30171104 eV
  | XC potential correction       :          13.89548922 Ha         378.11549990 eV
  | Free-atom electrostatic energy:         -33.32004492 Ha        -906.68455390 eV
  | Hartree energy correction     :          -1.73311016 Ha         -47.16032702 eV
  | van der Waals energy corr.    :           0.00000000 Ha           0.00000000 eV
  | Entropy correction            :           0.00000000 Ha           0.00000000 eV
  | ---------------------------
  | Total energy                  :         -76.22574048 Ha       -2074.20793304 eV
  | Total energy, T -> 0          :         -76.22574048 Ha       -2074.20793304 eV  <-- do not rely on this value for anything but (periodic) metals
  | Electronic free energy        :         -76.22574048 Ha       -2074.20793304 eV

  Derived energy quantities:
  | Kinetic energy                :          75.95636892 Ha        2066.87795996 eV
  | Electrostatic energy          :        -141.36672031 Ha       -3846.78418196 eV
  | Energy correction for multipole
  | error in Hartree potential    :          -0.01145244 Ha          -0.31163678 eV
  | Sum of eigenvalues per atom                           :        -602.08842049 eV
  | Total energy (T->0) per atom                          :       -1037.10396652 eV  <-- do not rely on this value for anything but (periodic) metals
  | Electronic free energy per atom                       :       -1037.10396652 eV

  Self-consistency convergence accuracy:
  | Change of charge/spin density : 0.1463E-01 0.3297E-01
  | Change of sum of eigenvalues  : -.3333E+01 eV
  | Change of total energy        : -.3139E-01 eV

  End self-consistency iteration #     4       :  max(cpu_time)    wall_clock(cpu1)
  | Time for this iteration                    :        5.406 s           5.418 s
  | Charge density update                      :        3.265 s           3.271 s
  | Density mixing & preconditioning           :        0.201 s           0.201 s
  | Hartree multipole update                   :        0.002 s           0.002 s
  | Hartree multipole summation                :        0.277 s           0.278 s
  | Integration                                :        1.641 s           1.645 s
  | Solution of K.-S. eqns.                    :        0.020 s           0.020 s
  | Total energy evaluation                    :        0.000 s           0.000 s
------------------------------------------------------------

------------------------------------------------------------
          Begin self-consistency iteration #    5

  Date     :  20220221, Time     :  151633.401
------------------------------------------------------------
  Evaluating new KS density using the density matrix
  Evaluating density matrix
  Evaluating density matrix
  Time summed over all CPUs for getting density from density matrix: real work       25.541 s, elapsed       26.129 s
  Integration grid: deviation in total charge (<rho> - N_e) =  -5.904538E-05
  | <rho_up-rho_dn> = N_up-N_dn =     -0.0238; <|rho_up-rho_dn|> =      0.0365
  Pulay mixing of updated and previous charge densities.

  Evaluating partitioned Hartree potential by multipole expansion.
  | Analytical far-field extrapolation by fixed multipoles:
  | Hartree multipole sum: apparent total charge =  -0.468105E-04
  Summing up the Hartree potential.
  Time summed over all CPUs for potential: real work        2.137 s, elapsed        2.188 s
  | RMS charge density error from multipole expansion :   0.812765E-02
  | Average real-space part of the electrostatic potential :      0.24496559 eV

  Integrating Hamiltonian matrix: batch-based integration.
  Time summed over all CPUs for integration: real work       13.350 s, elapsed       13.580 s

  Updating Kohn-Sham eigenvalues, eigenvectors, occupation numbers, and Fermi level.
  Solving generalized eigenproblem
  Determining occupation numbers for Kohn-Sham eigenstates.
  | Chemical potential (Fermi level) in eV                 : -.61115143E+01
  | Error in electron count due to remaining E_F inaccuracy: -.74606987E-13
  | Maximum occupation number of highest empty state:  0.00E+00

  Current spin moment of the entire structure :
  | N = N_up - N_down (sum over all k points):         0.00000
  | S (sum over all k points)                :         0.00000

  What follows are estimated values for band gap, HOMO, LUMO, etc.
  | They are estimated on a discrete k-point grid and not necessarily exact.
  | For converged numbers, create a DOS and/or band structure plot on a denser k-grid.

  Highest occupied state (VBM) at     -6.99199793 eV (relative to internal zero)
  | Occupation number:      1.00000000
  | K-point:      23 at    0.714286    0.714286    0.000000 (in units of recip. lattice)
  | Spin channel:        2

  Lowest unoccupied state (CBM) at    -3.97617670 eV (relative to internal zero)
  | Occupation number:      0.00000000
  | K-point:      23 at    0.714286    0.714286    0.000000 (in units of recip. lattice)
  | Spin channel:        1

  ESTIMATED overall HOMO-LUMO gap:      3.01582123 eV between HOMO at k-point 23 and LUMO at k-point 23
  | This appears to be a direct band gap.
  The gap value is above 0.2 eV. Unless you are using a very sparse k-point grid,
  this system is most likely an insulator or a semiconductor.

  Total energy components:
  | Sum of eigenvalues            :         -44.23088330 Ha       -1203.58357233 eV
  | XC energy correction          :         -10.81770063 Ha        -294.36461133 eV
  | XC potential correction       :          13.89838844 Ha         378.19439169 eV
  | Free-atom electrostatic energy:         -33.32004492 Ha        -906.68455390 eV
  | Hartree energy correction     :          -1.75551529 Ha         -47.77000167 eV
  | van der Waals energy corr.    :           0.00000000 Ha           0.00000000 eV
  | Entropy correction            :           0.00000000 Ha           0.00000000 eV
  | ---------------------------
  | Total energy                  :         -76.22575571 Ha       -2074.20834755 eV
  | Total energy, T -> 0          :         -76.22575571 Ha       -2074.20834755 eV  <-- do not rely on this value for anything but (periodic) metals
  | Electronic free energy        :         -76.22575571 Ha       -2074.20834755 eV

  Derived energy quantities:
  | Kinetic energy                :          75.98287105 Ha        2067.59911947 eV
  | Electrostatic energy          :        -141.39092613 Ha       -3847.44285568 eV
  | Energy correction for multipole
  | error in Hartree potential    :          -0.01137539 Ha          -0.30954019 eV
  | Sum of eigenvalues per atom                           :        -601.79178617 eV
  | Total energy (T->0) per atom                          :       -1037.10417377 eV  <-- do not rely on this value for anything but (periodic) metals
  | Electronic free energy per atom                       :       -1037.10417377 eV

  Self-consistency convergence accuracy:
  | Change of charge/spin density : 0.3330E-02 0.4523E-02
  | Change of sum of eigenvalues  : 0.5933E+00 eV
  | Change of total energy        : -.4145E-03 eV

  End self-consistency iteration #     5       :  max(cpu_time)    wall_clock(cpu1)
  | Time for this iteration                    :        5.466 s           5.478 s
  | Charge density update                      :        3.268 s           3.275 s
  | Density mixing & preconditioning           :        0.199 s           0.200 s
  | Hartree multipole update                   :        0.002 s           0.002 s
  | Hartree multipole summation                :        0.278 s           0.278 s
  | Integration                                :        1.698 s           1.702 s
  | Solution of K.-S. eqns.                    :        0.020 s           0.020 s
  | Total energy evaluation                    :        0.000 s           0.001 s
------------------------------------------------------------

------------------------------------------------------------
          Begin self-consistency iteration #    6

  Date     :  20220221, Time     :  151638.881
------------------------------------------------------------
  Evaluating new KS density using the density matrix
  Evaluating density matrix
  Evaluating density matrix
  Time summed over all CPUs for getting density from density matrix: real work       25.585 s, elapsed       26.149 s
  Integration grid: deviation in total charge (<rho> - N_e) =  -4.626770E-05
  | <rho_up-rho_dn> = N_up-N_dn =     -0.0049; <|rho_up-rho_dn|> =      0.0050
  Pulay mixing of updated and previous charge densities.

  Evaluating partitioned Hartree potential by multipole expansion.
  | Analytical far-field extrapolation by fixed multipoles:
  | Hartree multipole sum: apparent total charge =  -0.221375E-04
  Summing up the Hartree potential.
  Time summed over all CPUs for potential: real work        2.130 s, elapsed        2.186 s
  | RMS charge density error from multipole expansion :   0.812462E-02
  | Average real-space part of the electrostatic potential :      0.24535515 eV

  Integrating Hamiltonian matrix: batch-based integration.
  Time summed over all CPUs for integration: real work       12.735 s, elapsed       12.889 s

  Updating Kohn-Sham eigenvalues, eigenvectors, occupation numbers, and Fermi level.
  Solving generalized eigenproblem
  Determining occupation numbers for Kohn-Sham eigenstates.
  | Chemical potential (Fermi level) in eV                 : -.61073281E+01
  | Error in electron count due to remaining E_F inaccuracy: -.74606987E-13
  | Maximum occupation number of highest empty state:  0.00E+00

  Current spin moment of the entire structure :
  | N = N_up - N_down (sum over all k points):         0.00000
  | S (sum over all k points)                :         0.00000

  What follows are estimated values for band gap, HOMO, LUMO, etc.
  | They are estimated on a discrete k-point grid and not necessarily exact.
  | For converged numbers, create a DOS and/or band structure plot on a denser k-grid.

  Highest occupied state (VBM) at     -6.98105296 eV (relative to internal zero)
  | Occupation number:      1.00000000
  | K-point:      23 at    0.714286    0.714286    0.000000 (in units of recip. lattice)
  | Spin channel:        1

  Lowest unoccupied state (CBM) at    -3.96186476 eV (relative to internal zero)
  | Occupation number:      0.00000000
  | K-point:      23 at    0.714286    0.714286    0.000000 (in units of recip. lattice)
  | Spin channel:        2

  ESTIMATED overall HOMO-LUMO gap:      3.01918821 eV between HOMO at k-point 23 and LUMO at k-point 23
  | This appears to be a direct band gap.
  The gap value is above 0.2 eV. Unless you are using a very sparse k-point grid,
  this system is most likely an insulator or a semiconductor.

  Total energy components:
  | Sum of eigenvalues            :         -44.22178311 Ha       -1203.33594359 eV
  | XC energy correction          :         -10.81856577 Ha        -294.38815301 eV
  | XC potential correction       :          13.89948811 Ha         378.22431539 eV
  | Free-atom electrostatic energy:         -33.32004492 Ha        -906.68455390 eV
  | Hartree energy correction     :          -1.76484867 Ha         -48.02397574 eV
  | van der Waals energy corr.    :           0.00000000 Ha           0.00000000 eV
  | Entropy correction            :           0.00000000 Ha           0.00000000 eV
  | ---------------------------
  | Total energy                  :         -76.22575437 Ha       -2074.20831086 eV
  | Total energy, T -> 0          :         -76.22575437 Ha       -2074.20831086 eV  <-- do not rely on this value for anything but (periodic) metals
  | Electronic free energy        :         -76.22575437 Ha       -2074.20831086 eV

  Derived energy quantities:
  | Kinetic energy                :          75.98851179 Ha        2067.75261182 eV
  | Electrostatic energy          :        -141.39570038 Ha       -3847.57276966 eV
  | Energy correction for multipole
  | error in Hartree potential    :          -0.01138010 Ha          -0.30966836 eV
  | Sum of eigenvalues per atom                           :        -601.66797180 eV
  | Total energy (T->0) per atom                          :       -1037.10415543 eV  <-- do not rely on this value for anything but (periodic) metals
  | Electronic free energy per atom                       :       -1037.10415543 eV

  Self-consistency convergence accuracy:
  | Change of charge/spin density : 0.8490E-03 0.4996E-03
  | Change of sum of eigenvalues  : 0.2476E+00 eV
  | Change of total energy        : 0.3669E-04 eV

  End self-consistency iteration #     6       :  max(cpu_time)    wall_clock(cpu1)
  | Time for this iteration                    :        5.383 s           5.395 s
  | Charge density update                      :        3.271 s           3.278 s
  | Density mixing & preconditioning           :        0.198 s           0.199 s
  | Hartree multipole update                   :        0.002 s           0.001 s
  | Hartree multipole summation                :        0.278 s           0.279 s
  | Integration                                :        1.613 s           1.617 s
  | Solution of K.-S. eqns.                    :        0.020 s           0.020 s
  | Total energy evaluation                    :        0.000 s           0.000 s
------------------------------------------------------------

------------------------------------------------------------
          Begin self-consistency iteration #    7

  Date     :  20220221, Time     :  151644.280
------------------------------------------------------------
  Evaluating new KS density using the density matrix
  Evaluating density matrix
  Evaluating density matrix
  Time summed over all CPUs for getting density from density matrix: real work       25.468 s, elapsed       26.036 s
  Integration grid: deviation in total charge (<rho> - N_e) =  -2.159402E-05
  | <rho_up-rho_dn> = N_up-N_dn =     -0.0002; <|rho_up-rho_dn|> =      0.0019
  Pulay mixing of updated and previous charge densities.

  Evaluating partitioned Hartree potential by multipole expansion.
  | Analytical far-field extrapolation by fixed multipoles:
  | Hartree multipole sum: apparent total charge =  -0.207478E-04
  Summing up the Hartree potential.
  Time summed over all CPUs for potential: real work        2.132 s, elapsed        2.188 s
  | RMS charge density error from multipole expansion :   0.812422E-02
  | Average real-space part of the electrostatic potential :      0.24535233 eV

  Integrating Hamiltonian matrix: batch-based integration.
  Time summed over all CPUs for integration: real work       13.346 s, elapsed       13.576 s

  Updating Kohn-Sham eigenvalues, eigenvectors, occupation numbers, and Fermi level.
  Solving generalized eigenproblem
  Determining occupation numbers for Kohn-Sham eigenstates.
  | Chemical potential (Fermi level) in eV                 : -.61075271E+01
  | Error in electron count due to remaining E_F inaccuracy: -.74606987E-13
  | Maximum occupation number of highest empty state:  0.00E+00

  Current spin moment of the entire structure :
  | N = N_up - N_down (sum over all k points):         0.00000
  | S (sum over all k points)                :         0.00000

  What follows are estimated values for band gap, HOMO, LUMO, etc.
  | They are estimated on a discrete k-point grid and not necessarily exact.
  | For converged numbers, create a DOS and/or band structure plot on a denser k-grid.

  Highest occupied state (VBM) at     -6.98097407 eV (relative to internal zero)
  | Occupation number:      1.00000000
  | K-point:      23 at    0.714286    0.714286    0.000000 (in units of recip. lattice)
  | Spin channel:        1

  Lowest unoccupied state (CBM) at    -3.96178946 eV (relative to internal zero)
  | Occupation number:      0.00000000
  | K-point:      23 at    0.714286    0.714286    0.000000 (in units of recip. lattice)
  | Spin channel:        2

  ESTIMATED overall HOMO-LUMO gap:      3.01918460 eV between HOMO at k-point 23 and LUMO at k-point 23
  | This appears to be a direct band gap.
  The gap value is above 0.2 eV. Unless you are using a very sparse k-point grid,
  this system is most likely an insulator or a semiconductor.

  Total energy components:
  | Sum of eigenvalues            :         -44.22171701 Ha       -1203.33414469 eV
  | XC energy correction          :         -10.81857267 Ha        -294.38834060 eV
  | XC potential correction       :          13.89949691 Ha         378.22455487 eV
  | Free-atom electrostatic energy:         -33.32004492 Ha        -906.68455390 eV
  | Hartree energy correction     :          -1.76491709 Ha         -48.02583763 eV
  | van der Waals energy corr.    :           0.00000000 Ha           0.00000000 eV
  | Entropy correction            :           0.00000000 Ha           0.00000000 eV
  | ---------------------------
  | Total energy                  :         -76.22575477 Ha       -2074.20832196 eV
  | Total energy, T -> 0          :         -76.22575477 Ha       -2074.20832196 eV  <-- do not rely on this value for anything but (periodic) metals
  | Electronic free energy        :         -76.22575477 Ha       -2074.20832196 eV

  Derived energy quantities:
  | Kinetic energy                :          75.98859368 Ha        2067.75484022 eV
  | Electrostatic energy          :        -141.39577579 Ha       -3847.57482158 eV
  | Energy correction for multipole
  | error in Hartree potential    :          -0.01137981 Ha          -0.30966052 eV
  | Sum of eigenvalues per atom                           :        -601.66707235 eV
  | Total energy (T->0) per atom                          :       -1037.10416098 eV  <-- do not rely on this value for anything but (periodic) metals
  | Electronic free energy per atom                       :       -1037.10416098 eV

  Self-consistency convergence accuracy:
  | Change of charge/spin density : 0.1121E-02 0.2061E-03
  | Change of sum of eigenvalues  : 0.1799E-02 eV
  | Change of total energy        : -.1110E-04 eV

  End self-consistency iteration #     7       :  max(cpu_time)    wall_clock(cpu1)
  | Time for this iteration                    :        5.452 s           5.464 s
  | Charge density update                      :        3.258 s           3.264 s
  | Density mixing & preconditioning           :        0.197 s           0.197 s
  | Hartree multipole update                   :        0.001 s           0.002 s
  | Hartree multipole summation                :        0.278 s           0.278 s
  | Integration                                :        1.697 s           1.701 s
  | Solution of K.-S. eqns.                    :        0.020 s           0.021 s
  | Total energy evaluation                    :        0.000 s           0.001 s
------------------------------------------------------------

------------------------------------------------------------
          Begin self-consistency iteration #    8

  Date     :  20220221, Time     :  151649.749
------------------------------------------------------------
  Evaluating new KS density using the density matrix
  Evaluating density matrix
  Evaluating density matrix
  Time summed over all CPUs for getting density from density matrix: real work       25.559 s, elapsed       26.134 s
  Integration grid: deviation in total charge (<rho> - N_e) =  -2.020430E-05
  | <rho_up-rho_dn> = N_up-N_dn =     -0.0002; <|rho_up-rho_dn|> =      0.0018
  Pulay mixing of updated and previous charge densities.

  Evaluating partitioned Hartree potential by multipole expansion.
  | Analytical far-field extrapolation by fixed multipoles:
  | Hartree multipole sum: apparent total charge =  -0.214956E-05
  Summing up the Hartree potential.
  Time summed over all CPUs for potential: real work        2.133 s, elapsed        2.188 s
  | RMS charge density error from multipole expansion :   0.811704E-02
  | Average real-space part of the electrostatic potential :      0.24530583 eV

  Integrating Hamiltonian matrix: batch-based integration.
  Time summed over all CPUs for integration: real work       13.356 s, elapsed       13.584 s

  Updating Kohn-Sham eigenvalues, eigenvectors, occupation numbers, and Fermi level.
  Solving generalized eigenproblem
  Determining occupation numbers for Kohn-Sham eigenstates.
  | Chemical potential (Fermi level) in eV                 : -.60598859E+01
  | Error in electron count due to remaining E_F inaccuracy: -.74606987E-13
  | Maximum occupation number of highest empty state:  0.00E+00

  Current spin moment of the entire structure :
  | N = N_up - N_down (sum over all k points):         0.00000
  | S (sum over all k points)                :         0.00000

  What follows are estimated values for band gap, HOMO, LUMO, etc.
  | They are estimated on a discrete k-point grid and not necessarily exact.
  | For converged numbers, create a DOS and/or band structure plot on a denser k-grid.

  Highest occupied state (VBM) at     -6.97967592 eV (relative to internal zero)
  | Occupation number:      1.00000000
  | K-point:      23 at    0.714286    0.714286    0.000000 (in units of recip. lattice)
  | Spin channel:        1

  Lowest unoccupied state (CBM) at    -3.96028648 eV (relative to internal zero)
  | Occupation number:      0.00000000
  | K-point:      23 at    0.714286    0.714286    0.000000 (in units of recip. lattice)
  | Spin channel:        2

  ESTIMATED overall HOMO-LUMO gap:      3.01938944 eV between HOMO at k-point 23 and LUMO at k-point 23
  | This appears to be a direct band gap.
  The gap value is above 0.2 eV. Unless you are using a very sparse k-point grid,
  this system is most likely an insulator or a semiconductor.

  Total energy components:
  | Sum of eigenvalues            :         -44.22072327 Ha       -1203.30710387 eV
  | XC energy correction          :         -10.81867776 Ha        -294.39120036 eV
  | XC potential correction       :          13.89963149 Ha         378.22821679 eV
  | Free-atom electrostatic energy:         -33.32004492 Ha        -906.68455390 eV
  | Hartree energy correction     :          -1.76593954 Ha         -48.05365990 eV
  | van der Waals energy corr.    :           0.00000000 Ha           0.00000000 eV
  | Entropy correction            :           0.00000000 Ha           0.00000000 eV
  | ---------------------------
  | Total energy                  :         -76.22575401 Ha       -2074.20830125 eV
  | Total energy, T -> 0          :         -76.22575401 Ha       -2074.20830125 eV  <-- do not rely on this value for anything but (periodic) metals
  | Electronic free energy        :         -76.22575401 Ha       -2074.20830125 eV

  Derived energy quantities:
  | Kinetic energy                :          75.98993392 Ha        2067.79131002 eV
  | Electrostatic energy          :        -141.39701017 Ha       -3847.60841090 eV
  | Energy correction for multipole
  | error in Hartree potential    :          -0.01137436 Ha          -0.30951219 eV
  | Sum of eigenvalues per atom                           :        -601.65355194 eV
  | Total energy (T->0) per atom                          :       -1037.10415062 eV  <-- do not rely on this value for anything but (periodic) metals
  | Electronic free energy per atom                       :       -1037.10415062 eV

  Self-consistency convergence accuracy:
  | Change of charge/spin density : 0.2651E-02 0.1959E-03
  | Change of sum of eigenvalues  : 0.2704E-01 eV
  | Change of total energy        : 0.2071E-04 eV

  End self-consistency iteration #     8       :  max(cpu_time)    wall_clock(cpu1)
  | Time for this iteration                    :        5.462 s           5.475 s
  | Charge density update                      :        3.269 s           3.276 s
  | Density mixing & preconditioning           :        0.195 s           0.196 s
  | Hartree multipole update                   :        0.001 s           0.001 s
  | Hartree multipole summation                :        0.278 s           0.278 s
  | Integration                                :        1.698 s           1.703 s
  | Solution of K.-S. eqns.                    :        0.020 s           0.020 s
  | Total energy evaluation                    :        0.000 s           0.000 s
------------------------------------------------------------

------------------------------------------------------------
          Begin self-consistency iteration #    9

  Date     :  20220221, Time     :  151655.230
------------------------------------------------------------
  Evaluating new KS density using the density matrix
  Evaluating density matrix
  Evaluating density matrix
  Time summed over all CPUs for getting density from density matrix: real work       25.555 s, elapsed       26.123 s
  Integration grid: deviation in total charge (<rho> - N_e) =  -1.606230E-06
  | <rho_up-rho_dn> = N_up-N_dn =      0.0001; <|rho_up-rho_dn|> =      0.0002
  Pulay mixing of updated and previous charge densities.

  Evaluating partitioned Hartree potential by multipole expansion.
  | Analytical far-field extrapolation by fixed multipoles:
  | Hartree multipole sum: apparent total charge =   0.411070E-07
  Summing up the Hartree potential.
  Time summed over all CPUs for potential: real work        2.132 s, elapsed        2.187 s
  | RMS charge density error from multipole expansion :   0.811620E-02
  | Average real-space part of the electrostatic potential :      0.24530476 eV

  Integrating Hamiltonian matrix: batch-based integration.
  Time summed over all CPUs for integration: real work       13.332 s, elapsed       13.538 s

  Updating Kohn-Sham eigenvalues, eigenvectors, occupation numbers, and Fermi level.
  Solving generalized eigenproblem
  Determining occupation numbers for Kohn-Sham eigenstates.
  | Chemical potential (Fermi level) in eV                 : -.60417083E+01
  | Error in electron count due to remaining E_F inaccuracy: -.74606987E-13
  | Maximum occupation number of highest empty state:  0.00E+00

  Current spin moment of the entire structure :
  | N = N_up - N_down (sum over all k points):         0.00000
[...]
  | Occupation number:      0.00000000
  | K-point:      23 at    0.714286    0.714286    0.000000 (in units of recip. lattice)
  | Spin channel:        2

  ESTIMATED overall HOMO-LUMO gap:      3.01943494 eV between HOMO at k-point 23 and LUMO at k-point 23
  | This appears to be a direct band gap.
  The gap value is above 0.2 eV. Unless you are using a very sparse k-point grid,
  this system is most likely an insulator or a semiconductor.

  Total energy components:
  | Sum of eigenvalues            :         -44.22096009 Ha       -1203.31354784 eV
  | XC energy correction          :         -10.81865034 Ha        -294.39045420 eV
  | XC potential correction       :          13.89959868 Ha         378.22732409 eV
  | Free-atom electrostatic energy:         -33.32004492 Ha        -906.68455390 eV
  | Hartree energy correction     :          -1.76569727 Ha         -48.04706724 eV
  | van der Waals energy corr.    :           0.00000000 Ha           0.00000000 eV
  | Entropy correction            :           0.00000000 Ha           0.00000000 eV
  | ---------------------------
  | Total energy                  :         -76.22575393 Ha       -2074.20829909 eV
  | Total energy, T -> 0          :         -76.22575393 Ha       -2074.20829909 eV  <-- do not rely on this value for anything but (periodic) metals
  | Electronic free energy        :         -76.22575393 Ha       -2074.20829909 eV

  Derived energy quantities:
  | Kinetic energy                :          75.98976606 Ha        2067.78674225 eV
  | Electrostatic energy          :        -141.39686965 Ha       -3847.60458714 eV
  | Energy correction for multipole
  | error in Hartree potential    :          -0.01137319 Ha          -0.30948023 eV
  | Sum of eigenvalues per atom                           :        -601.65677392 eV
  | Total energy (T->0) per atom                          :       -1037.10414954 eV  <-- do not rely on this value for anything but (periodic) metals
  | Electronic free energy per atom                       :       -1037.10414954 eV

  Self-consistency convergence accuracy:
  | Change of charge/spin density : 0.3568E-06 0.1432E-06
  | Change of sum of eigenvalues  : -.1618E-04 eV
  | Change of total energy        : 0.1257E-07 eV

  End self-consistency iteration #    13       :  max(cpu_time)    wall_clock(cpu1)
  | Time for this iteration                    :        5.313 s           5.324 s
  | Charge density update                      :        3.207 s           3.213 s
  | Density mixing & preconditioning           :        0.194 s           0.195 s
  | Hartree multipole update                   :        0.001 s           0.002 s
  | Hartree multipole summation                :        0.277 s           0.277 s
  | Integration                                :        1.612 s           1.616 s
  | Solution of K.-S. eqns.                    :        0.020 s           0.020 s
  | Total energy evaluation                    :        0.000 s           0.000 s
------------------------------------------------------------

------------------------------------------------------------
          Begin self-consistency iteration #   14

  Date     :  20220221, Time     :  151722.330
------------------------------------------------------------
  Evaluating new KS density using the density matrix
  Evaluating density matrix
  Evaluating density matrix
  Time summed over all CPUs for getting density from density matrix: real work       25.048 s, elapsed       25.575 s
  Integration grid: deviation in total charge (<rho> - N_e) =   6.534665E-08
  | <rho_up-rho_dn> = N_up-N_dn =      0.0000; <|rho_up-rho_dn|> =      0.0000
  Pulay mixing of updated and previous charge densities.

  Evaluating partitioned Hartree potential by multipole expansion.
  | Analytical far-field extrapolation by fixed multipoles:
  | Hartree multipole sum: apparent total charge =  -0.535478E-06
  Summing up the Hartree potential.
  Time summed over all CPUs for potential: real work        2.125 s, elapsed        2.180 s
  | RMS charge density error from multipole expansion :   0.811583E-02
  | Average real-space part of the electrostatic potential :      0.24530986 eV

  Integrating Hamiltonian matrix: batch-based integration.
  Time summed over all CPUs for integration: real work       12.738 s, elapsed       12.900 s

  Updating Kohn-Sham eigenvalues, eigenvectors, occupation numbers, and Fermi level.
  Solving generalized eigenproblem
  Determining occupation numbers for Kohn-Sham eigenstates.
  | Chemical potential (Fermi level) in eV                 : -.60328777E+01
  | Error in electron count due to remaining E_F inaccuracy: -.74606987E-13
  | Maximum occupation number of highest empty state:  0.00E+00

  Current spin moment of the entire structure :
  | N = N_up - N_down (sum over all k points):         0.00000
  | S (sum over all k points)                :         0.00000

  What follows are estimated values for band gap, HOMO, LUMO, etc.
  | They are estimated on a discrete k-point grid and not necessarily exact.
  | For converged numbers, create a DOS and/or band structure plot on a denser k-grid.

  Highest occupied state (VBM) at     -6.98008294 eV (relative to internal zero)
  | Occupation number:      1.00000000
  | K-point:      23 at    0.714286    0.714286    0.000000 (in units of recip. lattice)
  | Spin channel:        2

  Lowest unoccupied state (CBM) at    -3.96064785 eV (relative to internal zero)
  | Occupation number:      0.00000000
  | K-point:      23 at    0.714286    0.714286    0.000000 (in units of recip. lattice)
  | Spin channel:        1

  ESTIMATED overall HOMO-LUMO gap:      3.01943509 eV between HOMO at k-point 23 and LUMO at k-point 23
  | This appears to be a direct band gap.
  The gap value is above 0.2 eV. Unless you are using a very sparse k-point grid,
  this system is most likely an insulator or a semiconductor.

  Total energy components:
  | Sum of eigenvalues            :         -44.22096031 Ha       -1203.31355405 eV
  | XC energy correction          :         -10.81865025 Ha        -294.39045170 eV
  | XC potential correction       :          13.89959857 Ha         378.22732113 eV
  | Free-atom electrostatic energy:         -33.32004492 Ha        -906.68455390 eV
  | Hartree energy correction     :          -1.76569702 Ha         -48.04706056 eV
  | van der Waals energy corr.    :           0.00000000 Ha           0.00000000 eV
  | Entropy correction            :           0.00000000 Ha           0.00000000 eV
  | ---------------------------
  | Total energy                  :         -76.22575393 Ha       -2074.20829908 eV
  | Total energy, T -> 0          :         -76.22575393 Ha       -2074.20829908 eV  <-- do not rely on this value for anything but (periodic) metals
  | Electronic free energy        :         -76.22575393 Ha       -2074.20829908 eV

  Derived energy quantities:
  | Kinetic energy                :          75.98976581 Ha        2067.78673550 eV
  | Electrostatic energy          :        -141.39686949 Ha       -3847.60458287 eV
  | Energy correction for multipole
  | error in Hartree potential    :          -0.01137316 Ha          -0.30947956 eV
  | Sum of eigenvalues per atom                           :        -601.65677702 eV
  | Total energy (T->0) per atom                          :       -1037.10414954 eV  <-- do not rely on this value for anything but (periodic) metals
  | Electronic free energy per atom                       :       -1037.10414954 eV

  Self-consistency convergence accuracy:
  | Change of charge/spin density : 0.1845E-06 0.8383E-07
  | Change of sum of eigenvalues  : -.6205E-05 eV
  | Change of total energy        : 0.1304E-07 eV

  Preliminary charge convergence reached. Turning off preconditioner.

  Writing Kohn-Sham eigenvalues.

  Spin-up eigenvalues:
  K-point:       1 at    0.000000    0.000000    0.000000 (in units of recip. lattice)

  State    Occupation    Eigenvalue [Ha]    Eigenvalue [eV]
      1       1.00000          -9.979164         -271.54687
      2       1.00000          -9.978202         -271.52068
      3       1.00000          -0.920511          -25.04838
      4       1.00000          -0.482568          -13.13134
      5       1.00000          -0.313263           -8.52431
      6       1.00000          -0.313260           -8.52423
      7       0.00000           0.020100            0.54694
      8       0.00000           0.068107            1.85329
      9       0.00000           0.106395            2.89516
     10       0.00000           0.106401            2.89532
     11       0.00000           0.222692            6.05976

  Spin-down eigenvalues:
  K-point:       1 at    0.000000    0.000000    0.000000 (in units of recip. lattice)

  State    Occupation    Eigenvalue [Ha]    Eigenvalue [eV]
      1       1.00000          -9.979164         -271.54687
      2       1.00000          -9.978202         -271.52068
      3       1.00000          -0.920511          -25.04838
      4       1.00000          -0.482568          -13.13134
      5       1.00000          -0.313263           -8.52431
      6       1.00000          -0.313260           -8.52423
      7       0.00000           0.020100            0.54694
      8       0.00000           0.068107            1.85329
      9       0.00000           0.106395            2.89516
     10       0.00000           0.106401            2.89532
     11       0.00000           0.222692            6.05976

  Current spin moment of the entire structure :
  | N = N_up - N_down (sum over all k points):         0.00000
  | S (sum over all k points)                :         0.00000

  What follows are estimated values for band gap, HOMO, LUMO, etc.
  | They are estimated on a discrete k-point grid and not necessarily exact.
  | For converged numbers, create a DOS and/or band structure plot on a denser k-grid.

  Highest occupied state (VBM) at     -6.98008294 eV (relative to internal zero)
  | Occupation number:      1.00000000
  | K-point:      23 at    0.714286    0.714286    0.000000 (in units of recip. lattice)
  | Spin channel:        2

  Lowest unoccupied state (CBM) at    -3.96064785 eV (relative to internal zero)
  | Occupation number:      0.00000000
  | K-point:      23 at    0.714286    0.714286    0.000000 (in units of recip. lattice)
  | Spin channel:        1

  ESTIMATED overall HOMO-LUMO gap:      3.01943509 eV between HOMO at k-point 23 and LUMO at k-point 23
  | This appears to be a direct band gap.
  The gap value is above 0.2 eV. Unless you are using a very sparse k-point grid,
  this system is most likely an insulator or a semiconductor.

  Self-consistency cycle converged.

  End self-consistency iteration #    14       :  max(cpu_time)    wall_clock(cpu1)
  | Time for this iteration                    :        5.305 s           5.317 s
  | Charge density update                      :        3.199 s           3.205 s
  | Density mixing                             :        0.194 s           0.194 s
  | Hartree multipole update                   :        0.001 s           0.002 s
  | Hartree multipole summation                :        0.277 s           0.277 s
  | Integration                                :        1.613 s           1.616 s
  | Solution of K.-S. eqns.                    :        0.020 s           0.021 s
  | Total energy evaluation                    :        0.000 s           0.001 s
------------------------------------------------------------
  Obtaining max. number of non-zero basis functions in each batch .
  Evaluating KS electron density on previously omitted grid points, using the density matrix.
  Evaluating density matrix
  Evaluating density matrix
  Evaluating non-empirical van der Waals correction (Tkatchenko/Scheffler 2009).
  Performing Hirshfeld analysis of fragment charges and moments.
  ----------------------------------------------------------------------
  | Atom     1: C
  |   Hirshfeld charge        :     -0.00003332
  |   Free atom volume        :     38.37861207
  |   Hirshfeld volume        :     32.34575800
  |   Hirshfeld spin moment   :     -0.00000001
  |   Hirshfeld dipole vector :     -0.00004852      -0.00000017       0.00000000
  |   Hirshfeld dipole moment :      0.00004852
  |   Hirshfeld second moments:      0.08553922      -0.00000029      -0.00000000
  |                                 -0.00000029       0.08535977      -0.00000000
  |                                 -0.00000000      -0.00000000       0.25104210
  ----------------------------------------------------------------------
  | Atom     2: C
  |   Hirshfeld charge        :     -0.00003332
  |   Free atom volume        :     38.37861207
  |   Hirshfeld volume        :     32.34575800
  |   Hirshfeld spin moment   :     -0.00000001
  |   Hirshfeld dipole vector :      0.00004852       0.00000017      -0.00000000
  |   Hirshfeld dipole moment :      0.00004852
  |   Hirshfeld second moments:      0.08553922      -0.00000029       0.00000000
  |                                 -0.00000029       0.08535977      -0.00000000
  |                                  0.00000000      -0.00000000       0.25104210
  ----------------------------------------------------------------------

  Converging periodic supercell size for vdw calculation.

  Total energy components:
  | Sum of eigenvalues            :         -44.22096031 Ha       -1203.31355405 eV
  | XC energy correction          :         -10.81865025 Ha        -294.39045170 eV
  | XC potential correction       :          13.89959857 Ha         378.22732113 eV
  | Free-atom electrostatic energy:         -33.32004492 Ha        -906.68455390 eV
  | Hartree energy correction     :          -1.76569702 Ha         -48.04706056 eV
  | van der Waals energy corr.    :          -0.00381896 Ha          -0.10391918 eV
  | Entropy correction            :           0.00000000 Ha           0.00000000 eV
  | ---------------------------
  | Total energy                  :         -76.22957289 Ha       -2074.31221826 eV
  | Total energy, T -> 0          :         -76.22957289 Ha       -2074.31221826 eV  <-- do not rely on this value for anything but (periodic) metals
  | Electronic free energy        :         -76.22957289 Ha       -2074.31221826 eV

  Derived energy quantities:
  | Kinetic energy                :          75.98976581 Ha        2067.78673550 eV
  | Electrostatic energy          :        -141.39686949 Ha       -3847.60458287 eV
  | Energy correction for multipole
  | error in Hartree potential    :          -0.01137316 Ha          -0.30947956 eV
  | Sum of eigenvalues per atom                           :        -601.65677702 eV
  | Total energy (T->0) per atom                          :       -1037.15610913 eV  <-- do not rely on this value for anything but (periodic) metals
  | Electronic free energy per atom                       :       -1037.15610913 eV
  Timings for VdW correction (Tkatchenko-Scheffler 2009 or later):
  | CPU time:        1.251 s, Wall clock time:        1.253 s.

  Energy and forces in a compact form:
  | Total energy uncorrected      :         -0.207431221826179E+04 eV
  | Total energy corrected        :         -0.207431221826179E+04 eV  <-- do not rely on this value for anything but (periodic) metals
  | Electronic free energy        :         -0.207431221826179E+04 eV

  ------------------------------------ 
  Start decomposition of the XC Energy 
  ------------------------------------ 
  Hartree-Fock part   :          0.000000000 Ha              0.000000000 eV
  ------------------------------------ 
  X Energy            :        -10.398778974 Ha           -282.965172986 eV
  C Energy GGA        :         -0.419871275 Ha            -11.425278715 eV
  Total XC Energy     :        -10.818650249 Ha           -294.390451701 eV
  LDA X and C from self-consistent density 
  X Energy LDA        :         -9.434335082 Ha           -256.721319423 eV
  C Energy LDA        :         -0.796142651 Ha            -21.664143796 eV
  ------------------------------------ 
  End decomposition of the XC Energy 
  ------------------------------------ 
  Post-scf processing of Kohn-Sham eigenvalues on a denser k-point grid.
  | Using dos_kgrid_factors to calculate post-scf total density of states.
  | Electron chemical potential:    -6.032877711887 eV.
  Integrating Hamiltonian matrix: batch-based integration.
  Time summed over all CPUs for integration: real work       12.722 s, elapsed       12.884 s
  Processing batch of k-points:     1     1     1
  Processing batch of k-points:     1     2     1
  Processing batch of k-points:     2     1     1
  Processing batch of k-points:     2     2     1
  | writing perturbative DOS (shifted by electron chemical potential) to file KS_dos_total.dat
  | writing perturbative DOS (raw data) to file KS_dos_total_raw.dat

------------------------------------------------------------------------------
  Final output of selected total energy values:

  The following output summarizes some interesting total energy values
  at the end of a run (AFTER all relaxation, molecular dynamics, etc.).

  | Total energy of the DFT / Hartree-Fock s.c.f. calculation      :          -2074.312218262 eV
  | Final zero-broadening corrected energy (caution - metals only) :          -2074.312218262 eV
  | For reference only, the value of 1 Hartree used in FHI-aims is :             27.211384500 eV

  Before relying on these values, please be sure to understand exactly which
  total energy value is referred to by a given number. Different objects may
  all carry the same name 'total energy'. Definitions:

  Total energy of the DFT / Hartree-Fock s.c.f. calculation:
  | Note that this energy does not include ANY quantities calculated after the
  | s.c.f. cycle, in particular not ANY RPA, MP2, etc. many-body perturbation terms.

  Final zero-broadening corrected energy:
  | For metallic systems only, a broadening of the occupation numbers at the Fermi
  | level can be extrapolated back to zero broadening by an electron-gas inspired
  | formula. For all systems that are not real metals, this value can be
  | meaningless and should be avoided.

------------------------------------------------------------------------------

------------------------------------------------------------
          Leaving FHI-aims.
          Date     :  20220221, Time     :  151730.885

          Computational steps:
          | Number of self-consistency cycles          :           14

          Detailed time accounting                     :  max(cpu_time)    wall_clock(cpu1)
          | Total time                                 :       82.317 s          82.612 s
          | Preparation time                           :        0.159 s           0.161 s
          | Grid partitioning                          :        0.056 s           0.056 s
          | Preloading free-atom quantities on grid    :        0.005 s           0.005 s
          | Free-atom superposition energy             :        0.031 s           0.032 s
          | Total time for integrations                :       25.892 s          25.955 s
          | Total time for solution of K.-S. equations :        0.323 s           0.326 s
          | Total time for density update              :       45.544 s          45.637 s
          | Total time for mixing & preconditioning    :        2.764 s           2.773 s
          | Total time for Hartree multipole update    :        0.021 s           0.022 s
          | Total time for Hartree multipole sum       :        3.878 s           3.887 s
          | Total time for total energy evaluation     :        0.003 s           0.006 s
          | Total time for scaled ZORA corrections     :        0.000 s           0.000 s
          | Total time for vdW correction              :        1.251 s           1.253 s

          Have a nice day.
------------------------------------------------------------
