  MPI-parallelism will be employed.
------------------------------------------------------------
          Invoking FHI-aims ...
          Version 052014
          Git rev. (modified): 096c982 Merge branch master of fhiaims:/pub/localo[...]
          Compiled on 2016/12/16 at 15:22:01 on host login02.hpc.iitd.ac.in.

          When using FHI-aims, please cite the following reference:

          Volker Blum, Ralf Gehrke, Felix Hanke, Paula Havu,
          Ville Havu, Xinguo Ren, Karsten Reuter, and Matthias Scheffler,
          'Ab Initio Molecular Simulations with Numeric Atom-Centered Orbitals: FHI-aims',
          Computer Physics Communications 180, 2175-2196 (2009)

          For any questions about FHI-aims, please visit the aimsclub website
          with its forums and wiki. Contributions to both the forums and the
          wiki are warmly encouraged - they are for you, and everyone is welcome there.

------------------------------------------------------------

  Date     :  20220221, Time     :  163343.252
  Time zero on CPU 1             :   0.155500000000000E-01  s.
  Internal wall clock time zero  :           414693223.252  s.

  Using        8 parallel tasks.
  Task        0 on host csky088 reporting.
  Task        1 on host csky088 reporting.
  Task        2 on host csky088 reporting.
  Task        3 on host csky088 reporting.
  Task        4 on host csky088 reporting.
  Task        5 on host csky088 reporting.
  Task        6 on host csky088 reporting.
  Task        7 on host csky088 reporting.

  Performing system and environment tests:
  | Environment variable OMP_NUM_THREADS correctly set to 1.
  | Stacksize not measured: no C compiler
  | Checking for scalapack...
  | Testing pdtran()...
  | All pdtran() tests passed.

  Obtaining array dimensions for all initial allocations:
  
  -----------------------------------------------------------------------
  Parsing control.in (first pass over file, find array dimensions only).
  The contents of control.in will be repeated verbatim below
  unless switched off by setting 'verbatim_writeout .false.' .
  in the first line of control.in .
  -----------------------------------------------------------------------
  
    xc               pbe
    spin             collinear
    default_initial_moment hund
    relativistic     atomic_zora scalar 1e-9
    occupation_type  gaussian 0.001
    charge	0
    vdw_correction_hirshfeld
    KS_method        scalapack_fast
    mixer            pulay
    charge_mix_param  0.4
    spin_mix_param    0.6
    sc_accuracy_rho  1E-4
    sc_accuracy_eev  1E-5
    sc_accuracy_etot 1E-5
    sc_iter_limit    100
    empty_states     5
    ####### keywords for DOS########
    k_grid  6 6 1
  ##########################
  #  relax_geometry trm 5E-5
  #  sc_accuracy_forces 1e-6
  ##########################
    output dos -20 20 10000 0.1
    dos_kgrid_factors 15 15 1
  
  ################################################################################
  #
  #  FHI-aims code project
  # Volker Blum, Fritz Haber Institute Berlin, 2009
  #
  #  Suggested "tight" defaults for C atom (to be pasted into control.in file)
  #
  ################################################################################
    species        C
  #     global species definitions
      nucleus             6
      mass                12.0107
  #
      l_hartree           6
  #
      cut_pot             4.0  2.0  1.0
      basis_dep_cutoff    1e-4
  #
      radial_base         34 7.0
      radial_multiplier   2
      angular_grids specified
        division   0.2187   50
        division   0.4416  110
        division   0.6335  194
        division   0.7727  302
        division   0.8772  434
  #      division   0.9334  590
  #      division   0.9924  770
  #      division   1.0230  974
  #      division   1.5020 1202
  #     outer_grid  974
        outer_grid  434
  ################################################################################
  #
  #  Definition of "minimal" basis
  #
  ################################################################################
  #     valence basis states
      valence      2  s   2.
      valence      2  p   2.
  #     ion occupancy
      ion_occ      2  s   1.
      ion_occ      2  p   1.
  ################################################################################
  #
  #  Suggested additional basis functions. For production calculations,
  #  uncomment them one after another (the most important basis functions are
  #  listed first).
  #
  #  Constructed for dimers: 1.0 A, 1.25 A, 1.5 A, 2.0 A, 3.0 A
  #
  ################################################################################
  #  "First tier" - improvements: -1214.57 meV to -155.61 meV
       hydro 2 p 1.7
       hydro 3 d 6
       hydro 2 s 4.9
  #  "Second tier" - improvements: -67.75 meV to -5.23 meV
       hydro 4 f 9.8
       hydro 3 p 5.2
       hydro 3 s 4.3
       hydro 5 g 14.4
       hydro 3 d 6.2
  #  "Third tier" - improvements: -2.43 meV to -0.60 meV
  #     hydro 2 p 5.6
  #     hydro 2 s 1.4
  #     hydro 3 d 4.9
  #     hydro 4 f 11.2
  #  "Fourth tier" - improvements: -0.39 meV to -0.18 meV
  #     hydro 2 p 2.1
  #     hydro 5 g 16.4
  #     hydro 4 d 13.2
  #     hydro 3 s 13.6
  #     hydro 4 f 17.6
  #  Further basis functions - improvements: -0.08 meV and below
  #     hydro 3 s 2
  #     hydro 3 p 6
  #     hydro 4 d 20
  ################################################################################
  #
  # For methods that use the localized form of the "resolution of identity" for
  # the two-electron Coulomb operator (RI_method LVL), particularly Hartree-Fock and
  # hybrid density functional calculations, the highest accuracy can be obtained by
  # uncommenting the line beginning with "for_aux"  below, thus adding an extra g radial
  # function to the construction of the product basis set for the expansion.
  # See Ref. New J. Phys. 17, 093020 (2015) for more information, particularly Figs. 1 and 6.
  #
  ################################################################################
  #
  # for_aux hydro 5 g 6.0
  
  -----------------------------------------------------------------------
  Completed first pass over input file control.in .
  -----------------------------------------------------------------------
  
  
  -----------------------------------------------------------------------
  Parsing geometry.in (first pass over file, find array dimensions only).
  The contents of geometry.in will be repeated verbatim below
  unless switched off by setting 'verbatim_writeout .false.' .
  in the first line of geometry.in .
  -----------------------------------------------------------------------
  
  lattice_vector   2.1304216  -1.2299995   0.0000000
  lattice_vector   0.0000000   2.4599989   0.0000000
  lattice_vector   0.0000000   0.0000000   6.8000000
  
  atom_frac                      -0.666667  -0.333333   0.500000  C
  atom_frac                       0.666667   0.333333   0.500000  C
  
  
  -----------------------------------------------------------------------
  Completed first pass over input file geometry.in .
  -----------------------------------------------------------------------
  

  Basic array size parameters:
  | Number of species                 :        1
  | Number of atoms                   :        2
  | Number of lattice vectors         :        3
  | Max. basis fn. angular momentum   :        4
  | Max. atomic/ionic basis occupied n:        2
  | Max. number of basis fn. types    :        2
  | Max. radial fns per species/type  :        8
  | Max. logarithmic grid size        :     1277
  | Max. radial integration grid size :       69
  | Max. angular integration grid size:      434
  | Max. angular grid division number :        8
  | Radial grid for Hartree potential :     1277
  | Number of spin channels           :        2

------------------------------------------------------------
          Reading file control.in.
------------------------------------------------------------
  XC: Using PBE gradient-corrected functionals.
  Spin treatment: Spin density functional theory - collinear spins.
  Initial spin moment per atom set according to Hund's rules.
  Scalar relativistic treatment of kinetic energy: on-site free-atom approximation to ZORA.
  Occupation type: Gaussian broadening, width =   0.100000E-02 eV.
  Charge =   0.000000E+00: Neutral system requested explicitly.
  Using non-empirical van der Waals correction (Hirshfeld partitioning):
  Kohn-Sham eigenvalues and eigenfunctions calculated by the ELPA eigensolver library.
  Using pulay charge density mixing.
  Charge density mixing - mixing parameter:     0.4000
  Spin density mixing - mixing parameter:     0.6000
  Convergence accuracy of self-consistent charge density: 0.1000E-03
  Convergence accuracy of sum of eigenvalues: 0.1000E-04
  Convergence accuracy of total energy: 0.1000E-04
  Maximum number of s.-c. iterations  :   100
  Number of empty states per atom:        5
  Found k-point grid:         6         6         1
  Calculating density of states with
  | energy interval :-20.000000 20.000000
  | points & broadening : 10000  0.100000
  Found k-point grid multipliers for perturbative DOS :        15        15         1
 
  Reading configuration options for species C                   .
  | Found nuclear charge :   6.0000
  | Found atomic mass :    12.0107000000000      amu
  | Found l_max for Hartree potential  :   6
  | Found cutoff potl. onset [A], width [A], scale factor :    4.00000    2.00000    1.00000
  | Threshold for basis-dependent cutoff potential is   0.100000E-03
  | Found data for basic radial integration grid :    34 points, outermost radius =    7.000 A
  | Found multiplier for basic radial grid :   2
  | Found angular grid specification: user-specified.
  | Specified grid contains     6 separate shells.
  | Check grid settings after all constraints further below.
  | Found free-atom valence shell :  2 s   2.000
  | Found free-atom valence shell :  2 p   2.000
  | No ionic wave fns used. Skipping ion_occ.
  | No ionic wave fns used. Skipping ion_occ.
  | Found hydrogenic basis function :  2 p   1.700
  | Found hydrogenic basis function :  3 d   6.000
  | Found hydrogenic basis function :  2 s   4.900
  | Found hydrogenic basis function :  4 f   9.800
  | Found hydrogenic basis function :  3 p   5.200
  | Found hydrogenic basis function :  3 s   4.300
  | Found hydrogenic basis function :  5 g  14.400
  | Found hydrogenic basis function :  3 d   6.200
  Species C                   : Missing cutoff potential type.
  Defaulting to exp(1/x)/(1-x)^2 type cutoff potential.
  Species C : No 'logarithmic' tag. Using default grid for free atom:
  | Default logarithmic grid data [bohr] : 0.1000E-03 0.1000E+03 0.1012E+01
  Species C : On-site basis accuracy parameter (for Gram-Schmidt orthonormalisation) not specified.
  Using default value basis_acc =  0.1000000E-03.
  Species C                   : Using default innermost maximum threshold i_radial=  2 for radial functions.
  Species C                   : Default cutoff onset for free atom density etc. : 0.40000000E+01 AA.
  Species C                   : Basic radial grid will be enhanced according to radial_multiplier =   2, to contain    69 grid points.
 
  Finished reading input file 'control.in'. Consistency checks are next.
 
  Target number of points in a grid batch is not set. Defaulting to  100
  Method for grid partitioning is not set. Defaulting to parallel hash+maxmin partitioning.
  Batch size limit is not set. Defaulting to    200
  By default, will store active basis functions for each batch.
  If in need of memory, prune_basis_once .false. can be used to disable this option.
  communication_type for Hartree potential was not specified.
  Defaulting to calc_hartree .
  Pulay mixer: Number of relevant iterations not set.
  Defaulting to    8 iterations.
  Pulay mixer: Number of initial linear mixing iterations not set.
  Defaulting to    0 iterations.
  Work space size for distributed Hartree potential not set.
  Defaulting to   0.200000E+03 MB.
  Algorithm-dependent basis array size parameters:
  | n_max_pulay                         :        8
  Calculation of forces was not defined in control.in. No forces will be calculated.
  Geometry relaxation not requested: no relaxation will be performed.
  No accuracy limit for integral partition fn. given. Defaulting to 0.1000E-14.
  No threshold value for u(r) in integrations given. Defaulting to 0.1000E-05.
  No accuracy for occupation numbers given. Defaulting to 0.1000E-07.
  No threshold value for occupation numbers given. Defaulting to 0.0000E+00.
  No accuracy for fermi level given. Defaulting to 0.1000E-19.
  Maximum # of iterations to find E_F not set. Defaulting to  200.
 * You have    36 k-points in your system, but only     8 MPI-tasks available.
 * In this case using ScaLAPACK is not necessary / supported.
 * Switching to default eigenvalue solver (lapack_fast) instead.
  Will not use alltoall communication since running on < 1024 CPUs.
  Threshold for basis singularities not set.
  Default threshold for basis singularities: 0.1000E-04
  partition_type (choice of integration weights) for integrals was not specified.
  | Using a version of the partition function of Stratmann and coworkers ('stratmann_smoother').
  | At each grid point, the set of atoms used to build the partition table is smoothly restricted to
  | only those atoms whose free-atom density would be non-zero at that grid point.
  Partitioning for Hartree potential was not defined. Using partition_type for integrals.
  | Adjusted default value of keyword multip_moments_threshold to:       0.10000000E-11
  | This value may affect high angular momentum components of the Hartree potential in periodic systems.
  Angular momentum expansion for Kerker preconditioner not set explicitly.
  | Using default value of   0
  No explicit requirement for turning off preconditioner.
  | By default, it will be turned off when the charge convergence reaches
  | sc_accuracy_rho  =   0.100000E-03
  | sc_accuracy_eev  =   0.100000E-04
  | sc_accuracy_etot =   0.100000E-04
  No special mixing parameter while Kerker preconditioner is on.
  Using default: charge_mix_param =     0.4000.
  No q(lm)/r^(l+1) cutoff set for long-range Hartree potential.
  | Using default value of  0.100000E-09 .
  | Verify using the multipole_threshold keyword.
  Defaulting to new monopole extrapolation.
  Density update method: automatic selection selected.
  Using density matrix based charge density update.
  Using density matrix based charge density update.
  Using packed matrix style: index .
  Defaulting to use time-reversal symmetry for k-point grid.
  Using the following vdw_convergence_threshold for supercell sums
  over the Tkatchenko-Scheffler correction: 0.100000E-04 eV.
------------------------------------------------------------


------------------------------------------------------------
          Reading geometry description geometry.in.
------------------------------------------------------------
  Input structure read successfully.
  The structure contains        2 atoms,  and a total of         12.000 electrons.

  Input geometry:
  | Unit cell:
  |         2.130422        -1.229999         0.000000
  |         0.000000         2.459999         0.000000
  |         0.000000         0.000000         6.800000
  | Atomic structure:
  |       Atom                x [A]            y [A]            z [A]
  |    1: Species C             -1.420282         0.000001         3.400000
  |    2: Species C              1.420282        -0.000001         3.400000
  |

  | The smallest distance between any two atoms is         1.42027960 AA.
  |
  | The first atom of this pair is atom number                      2 .
  | The second atom of this pair is atom number                     1 .
  | Wigner-Seitz cell of the first atom image           1     0     0 .
  | (The Wigner-Seitz cell of the second atom is 0 0 0  by definition.)

  Quantities derived from the lattice vectors:
  | Reciprocal lattice vector 1:  2.949268 -0.000000  0.000000
  | Reciprocal lattice vector 2:  1.474634  2.554142  0.000000
  | Reciprocal lattice vector 3:  0.000000  0.000000  0.923998
  | Unit cell volume                               :   0.356377E+02  A^3

  Initial moments and charges:
  |  Atom   Moment         Charge        Species
  |     1  (Hund's rule)   0.000000E+00   C
  |     2  (Hund's rule)   0.000000E+00   C

  Structure-dependent array size parameters: 
  | Number of distinct atom types in initial rho :        1
  | Maximum number of distinct radial functions  :       11
  | Maximum number of basis functions            :       78
  | Number of Kohn-Sham states (occupied + empty):       11
------------------------------------------------------------

------------------------------------------------------------
          Preparing all fixed parts of the calculation.
------------------------------------------------------------
  Determining machine precision:
    2.225073858507201E-308
  Setting up grids for atomic and cluster calculations.

  Creating wave function, potential, and density for free atoms.

  Species: C

  List of occupied orbitals and eigenvalues:
    n    l              occ      energy [Ha]    energy [eV]
    1    0           2.0000       -10.049212      -273.4530
    2    0           2.0000        -0.504761       -13.7352
    2    1           2.0000        -0.193631        -5.2690

  Spin-polarized or charged system:
  Charge density initialized according to selected moments and charges.

  Creating spin-polarized density from free atoms.

  Species: C
  Charge:   0.000000
  applying Hund's rules ...

  List of occupied orbitals and eigenvalues:
    n    l      energy [Ha]    energy [eV]    occupation
  Spin-up
    1    0       -10.040873      -273.2261     1.00000000
    2    0        -0.537730       -14.6324     1.00000000
    2    1        -0.223635        -6.0854     2.00000000
  Spin-down
    1    0       -10.011077      -272.4153     1.00000000
    2    0        -0.436278       -11.8717     1.00000000
    2    1        -0.132089        -3.5943     0.00000000

  Creating fixed part of basis set: Ionic, confined, hydrogenic.
 
  C                    hydrogenic:
 
  List of hydrogenic basis orbitals: 
    n    l      effective z      eigenvalue [eV]  inner max. [A]     outer max. [A]     outer radius [A]   
    2    1         1.700000        -9.8152           1.245706           1.245706           5.401630
    3    2         6.000000       -54.4226           0.792453           0.792453           4.178599
    2    0         4.900000       -81.6681           0.082559           0.562749           3.353238
    4    3         9.800000       -81.6681           0.863254           0.863254           4.028125
    3    1         5.200000       -40.8774           0.305389           1.215618           4.898362
    3    0         4.300000       -27.9508           0.091041           1.610311           5.401630
    5    4        14.400000      -112.8510           0.917666           0.917666           3.883070
    3    2         6.200000       -58.1113           0.763917           0.763917           4.077671
 

  Adding cutoff potential to free-atom effective potential.
  Creating atomic-like basis functions for current effective potential.

  Species C                   :

  List of atomic basis orbitals and eigenvalues:
    n    l      energy [Ha]    energy [eV]    outer radius [A]
    1    0       -10.049212      -273.4530       1.934409
    2    0        -0.504761       -13.7352       5.271162
    2    1        -0.193631        -5.2690       5.401630

  Assembling full basis from fixed parts.
  | Species C :   atomic orbital   1 s accepted.
  | Species C :    hydro orbital   2 s accepted.
  | Species C :   atomic orbital   2 s accepted.
  | Species C :    hydro orbital   3 s accepted.
  | Species C :    hydro orbital   3 p accepted.
  | Species C :   atomic orbital   2 p accepted.
  | Species C :    hydro orbital   2 p accepted.
  | Species C :    hydro orbital   3 d accepted.
  | Species C :    hydro orbital   3 d accepted.
  | Species C :    hydro orbital   4 f accepted.
  | Species C :    hydro orbital   5 g accepted.
 
  Basis size parameters after reduction:
  | Total number of radial functions:       11
  | Total number of basis functions :       78
 
  Testing on-site integration grid accuracy.
  |  Species  Function  <phi|h_atom|phi> (log., in eV)  <phi|h_atom|phi> (rad., in eV)
           1        1               -273.4529725981               -273.4529710451
           1        2                -10.7721037329                -10.7721022102
           1        3                 17.6044132585                 17.6044162052
           1        4                 53.7706460564                 53.7706913681
           1        5                 15.0973290351                 15.0973256011
           1        6                  3.8545134677                  3.8545724657
           1        7                 12.1156992586                 12.1182024423
           1        8                 29.4352039288                 29.4352041805
           1        9                 54.8741144697                 54.8740268719
           1       10                 59.3556032036                 59.3556031370
           1       11                 93.4551837140                 93.4551837996

  Preparing densities etc. for the partition functions (integrals / Hartree potential).

  Preparations completed.
  max(cpu_time)          :      0.163 s.
  Wall clock time (cpu1) :      0.167 s.
------------------------------------------------------------

------------------------------------------------------------
          Begin self-consistency loop: Initialization.

          Date     :  20220221, Time     :  163343.489
------------------------------------------------------------

  Initializing index lists of integration centers etc. from given atomic structure:
  Mapping all atomic coordinates to central unit cell.

  Initializing the k-points
          Using symmetry for reducing the k-points
  | k-points reduced from:       36 to       20
  | Number of k-points                             :        20
  The eigenvectors in the calculations are COMPLEX.
  | K-points in task   0:         2
  | K-points in task   1:         3
  | K-points in task   2:         3
  | K-points in task   3:         3
  | K-points in task   4:         3
  | K-points in task   5:         2
  | K-points in task   6:         2
  | K-points in task   7:         2
  | Number of basis functions in the Hamiltonian integrals :      3472
  | Number of basis functions in a single unit cell        :        78
  | Number of centers in hartree potential         :       646
  | Number of centers in hartree multipole         :       548
  | Number of centers in electron density summation:       428
  | Number of centers in basis integrals           :       456
  | Number of centers in integrals                 :       136
  | Consuming         73 KiB for k_phase.
  | Number of super-cells :                 234
  | Size of matrix packed + index :      284874
  Perform CPU consistency test for lattice for partition grid
  Perform CPU consistency test for map_to_center_cell_matrix for partition grid
  Partitioning the integration grid into batches with parallel hashing+maxmin method.
  | Number of batches:      496
  | Maximal batch size:     108
  | Minimal batch size:      50
  | Average batch size:      72.895
  | Standard deviation of batch sizes:      20.938

  Integration load balanced across     8 MPI tasks.
  Work distribution over tasks is as follows:
  Task     0 has       4522 integration points.
  Task     1 has       4521 integration points.
  Task     2 has       4485 integration points.
  Task     3 has       4502 integration points.
  Task     4 has       4502 integration points.
  Task     5 has       4538 integration points.
  Task     6 has       4549 integration points.
  Task     7 has       4537 integration points.
  Initializing partition tables, free-atom densities, potentials, etc. across the integration grid (initialize_grid_storage).
  | initialize_grid_storage: Actual outermost partition radius vs. multipole_radius_free
  | (-- VB: in principle, multipole_radius_free should be larger, hence this output)
  | Species        1: outer_partition_radius =              6.000000000000000 AA, multipole_radius_free =              6.029870734432609 AA.
  | Original list of interatomic distances with         456 x        456 entries is created.
  | Net number of integration points:    36156
  | of which are non-zero points    :    26826
  | Numerical average free-atom electrostatic potential    :     -6.92761138 eV
  Obtaining max. number of non-zero basis functions in each batch (get_n_compute_maxes).
  | Maximal number of non-zero basis functions:     1323 in task     0
  | Maximal number of non-zero basis functions:     1222 in task     1
  | Maximal number of non-zero basis functions:     1309 in task     2
  | Maximal number of non-zero basis functions:     1309 in task     3
  | Maximal number of non-zero basis functions:     1309 in task     4
  | Maximal number of non-zero basis functions:     1309 in task     5
  | Maximal number of non-zero basis functions:     1318 in task     6
  | Maximal number of non-zero basis functions:     1309 in task     7
  Integrating Hamiltonian matrix: batch-based integration.
  Time summed over all CPUs for integration: real work       15.144 s, elapsed       15.477 s
  Integrating overlap matrix.
  Time summed over all CPUs for integration: real work        6.242 s, elapsed        6.398 s
  Decreasing sparse matrix size:
   Tolerance:  9.999999824516700E-014
   Hamiltonian matrix
  | Array has   179225 nonzero elements out of   284874 elements
  | Sparsity factor is 0.371
   Overlap matrix
  | Array has   161147 nonzero elements out of   284874 elements
  | Sparsity factor is 0.434
  New size of hamiltonian matrix:      180040

  Updating Kohn-Sham eigenvalues, eigenvectors, occupation numbers, and Fermi level.
  Solving generalized eigenproblem
  Transforming overlap matrix and checking for singularities.
  Overlap matrix is nonsingular at first k-point:
  | Lowest eigenvalue:  0.153553E-03
  Determining occupation numbers for Kohn-Sham eigenstates.
  | Chemical potential (Fermi level) in eV                 : -.86514305E+01
  | Error in electron count due to remaining E_F inaccuracy: -.14210855E-13
  | Maximum occupation number of highest empty state:  0.00E+00

  Writing Kohn-Sham eigenvalues.

  Spin-up eigenvalues:
  K-point:       1 at    0.000000    0.000000    0.000000 (in units of recip. lattice)

  State    Occupation    Eigenvalue [Ha]    Eigenvalue [eV]
      1       1.00000         -10.181848         -277.06218
      2       1.00000         -10.180882         -277.03589
      3       1.00000          -1.102207          -29.99257
      4       1.00000          -0.620114          -16.87417
      5       1.00000          -0.528020          -14.36816
      6       1.00000          -0.528017          -14.36806
      7       0.00000          -0.085400           -2.32384
      8       0.00000          -0.085394           -2.32369
      9       0.00000          -0.024009           -0.65332
     10       0.00000           0.040709            1.10776
     11       0.00000           0.048401            1.31707

  Spin-down eigenvalues:
  K-point:       1 at    0.000000    0.000000    0.000000 (in units of recip. lattice)

  State    Occupation    Eigenvalue [Ha]    Eigenvalue [eV]
      1       1.00000         -10.149912         -276.19315
      2       1.00000         -10.148980         -276.16780
      3       1.00000          -0.975509          -26.54495
      4       1.00000          -0.506695          -13.78788
      5       1.00000          -0.396552          -10.79073
      6       1.00000          -0.396548          -10.79063
      7       0.00000           0.040540            1.10314
      8       0.00000           0.040544            1.10325
      9       0.00000           0.041938            1.14118
     10       0.00000           0.094711            2.57721
     11       0.00000           0.163747            4.45578

  Current spin moment of the entire structure :
  | N = N_up - N_down (sum over all k points):         0.10000
  | S (sum over all k points)                :         0.05000

  What follows are estimated values for band gap, HOMO, LUMO, etc.
  | They are estimated on a discrete k-point grid and not necessarily exact.
  | For converged numbers, create a DOS and/or band structure plot on a denser k-grid.

  Highest occupied state (VBM) at     -8.73314594 eV (relative to internal zero)
  | Occupation number:      1.00000000
  | K-point:      14 at    0.500000    0.000000    0.000000 (in units of recip. lattice)
  | Spin channel:        2

  Lowest unoccupied state (CBM) at    -7.73766560 eV (relative to internal zero)
  | Occupation number:      0.00000000
  | K-point:       4 at    0.000000    0.500000    0.000000 (in units of recip. lattice)
  | Spin channel:        1

  ESTIMATED overall HOMO-LUMO gap:      0.99548034 eV between HOMO at k-point 14 and LUMO at k-point 4
  | This appears to be an indirect band gap.
  | Smallest direct gap :      0.99548065 eV for k_point 4 at    0.000000    0.500000    0.000000 (in units of recip. lattice)
  | Direct gap HOMO spin channel :     2
  | Direct gap LUMO spin channel :     1
  The gap value is above 0.2 eV. Unless you are using a very sparse k-point grid,
  this system is most likely an insulator or a semiconductor.
  Calculating total energy contributions from superposition of free atom densities.

  Total energy components:
  | Sum of eigenvalues            :         -45.93831674 Ha       -1250.04520019 eV
  | XC energy correction          :         -10.83312258 Ha        -294.78426400 eV
  | XC potential correction       :          13.93338521 Ha         379.14670243 eV
  | Free-atom electrostatic energy:         -33.32004492 Ha        -906.68455390 eV
  | Hartree energy correction     :           0.00000000 Ha           0.00000000 eV
  | van der Waals energy corr.    :           0.00000000 Ha           0.00000000 eV
  | Entropy correction            :           0.00000000 Ha           0.00000000 eV
  | ---------------------------
  | Total energy                  :         -76.15809904 Ha       -2072.36731565 eV
  | Total energy, T -> 0          :         -76.15809904 Ha       -2072.36731565 eV  <-- do not rely on this value for anything but (periodic) metals
  | Electronic free energy        :         -76.15809904 Ha       -2072.36731565 eV

  Derived energy quantities:
  | Kinetic energy                :          76.18338958 Ha        2073.05550643 eV
  | Electrostatic energy          :        -141.50836603 Ha       -3850.63855809 eV
  | Energy correction for multipole
  | error in Hartree potential    :           0.00000000 Ha           0.00000000 eV
  | Sum of eigenvalues per atom                           :        -625.02260009 eV
  | Total energy (T->0) per atom                          :       -1036.18365782 eV  <-- do not rely on this value for anything but (periodic) metals
  | Electronic free energy per atom                       :       -1036.18365782 eV
  Initialize hartree_potential_storage
  Max. number of atoms included in rho_multipole:            2

  End scf initialization - timings             :  max(cpu_time)    wall_clock(cpu1)
  | Time for scf. initialization               :        3.281 s           3.289 s
  | Boundary condition initialization          :        0.071 s           0.071 s
  | Integration                                :        2.751 s           2.759 s
  | Solution of K.-S. eqns.                    :        0.034 s           0.034 s
  | Grid partitioning                          :        0.056 s           0.056 s
  | Preloading free-atom quantities on grid    :        0.005 s           0.005 s
  | Free-atom superposition energy             :        0.031 s           0.032 s
  | Total energy evaluation                    :        0.000 s           0.001 s
------------------------------------------------------------

------------------------------------------------------------
          Begin self-consistency iteration #    1

  Date     :  20220221, Time     :  163346.778
------------------------------------------------------------
  Evaluating new KS density using the density matrix
  Evaluating density matrix
  Evaluating density matrix
  Time summed over all CPUs for getting density from density matrix: real work       27.248 s, elapsed       27.954 s
  Integration grid: deviation in total charge (<rho> - N_e) =  -2.405867E-06
  | <rho_up-rho_dn> = N_up-N_dn =     -3.7778; <|rho_up-rho_dn|> =      3.7778
  Pulay mixing of updated and previous charge densities.

  Evaluating partitioned Hartree potential by multipole expansion.
  | Analytical far-field extrapolation by fixed multipoles:
  | Hartree multipole sum: apparent total charge =   0.345362E-03
  Summing up the Hartree potential.
  | Estimated reciprocal-space cutoff momentum G_max:         3.32253784 bohr^-1 .
  | Reciprocal lattice points for long-range Hartree potential:     150
  Time summed over all CPUs for potential: real work        2.095 s, elapsed        2.152 s
  | RMS charge density error from multipole expansion :   0.333851E-02
  | Average real-space part of the electrostatic potential :      0.12559360 eV

  Integrating Hamiltonian matrix: batch-based integration.
  Time summed over all CPUs for integration: real work       14.178 s, elapsed       14.599 s

  Updating Kohn-Sham eigenvalues, eigenvectors, occupation numbers, and Fermi level.
  Solving generalized eigenproblem
  Determining occupation numbers for Kohn-Sham eigenstates.
  | Chemical potential (Fermi level) in eV                 : -.73947462E+01
  | Error in electron count due to remaining E_F inaccuracy: -.14210855E-13
  | Maximum occupation number of highest empty state:  0.00E+00

  Writing Kohn-Sham eigenvalues.

  Spin-up eigenvalues:
  K-point:       1 at    0.000000    0.000000    0.000000 (in units of recip. lattice)

  State    Occupation    Eigenvalue [Ha]    Eigenvalue [eV]
      1       1.00000         -10.060203         -273.75204
      2       1.00000         -10.059231         -273.72559
      3       1.00000          -1.014490          -27.60569
      4       1.00000          -0.557643          -15.17425
      5       1.00000          -0.418900          -11.39884
      6       1.00000          -0.418897          -11.39876
      7       0.00000          -0.011053           -0.30078
      8       0.00000           0.009104            0.24773
      9       0.00000           0.009109            0.24788
     10       0.00000           0.055067            1.49846
     11       0.00000           0.128955            3.50905

  Spin-down eigenvalues:
  K-point:       1 at    0.000000    0.000000    0.000000 (in units of recip. lattice)

  State    Occupation    Eigenvalue [Ha]    Eigenvalue [eV]
      1       1.00000         -10.040443         -273.21436
      2       1.00000         -10.039492         -273.18847
      3       1.00000          -0.924880          -25.16726
      4       1.00000          -0.473841          -12.89386
      5       1.00000          -0.335225           -9.12194
      6       1.00000          -0.335222           -9.12186
      7       0.00000           0.024648            0.67070
      8       0.00000           0.070602            1.92118
      9       0.00000           0.098076            2.66879
     10       0.00000           0.098080            2.66890
     11       0.00000           0.217863            5.92834

  Current spin moment of the entire structure :
  | N = N_up - N_down (sum over all k points):         0.10000
  | S (sum over all k points)                :         0.05000

  What follows are estimated values for band gap, HOMO, LUMO, etc.
  | They are estimated on a discrete k-point grid and not necessarily exact.
  | For converged numbers, create a DOS and/or band structure plot on a denser k-grid.

  Highest occupied state (VBM) at     -7.66984999 eV (relative to internal zero)
  | Occupation number:      1.00000000
  | K-point:       4 at    0.000000    0.500000    0.000000 (in units of recip. lattice)
  | Spin channel:        2

  Lowest unoccupied state (CBM) at    -5.90029811 eV (relative to internal zero)
  | Occupation number:      0.00000000
  | K-point:       4 at    0.000000    0.500000    0.000000 (in units of recip. lattice)
  | Spin channel:        1

  ESTIMATED overall HOMO-LUMO gap:      1.76955188 eV between HOMO at k-point 4 and LUMO at k-point 4
  | This appears to be a direct band gap.
  The gap value is above 0.2 eV. Unless you are using a very sparse k-point grid,
  this system is most likely an insulator or a semiconductor.

  Total energy components:
  | Sum of eigenvalues            :         -44.91191494 Ha       -1222.11538613 eV
  | XC energy correction          :         -10.83243106 Ha        -294.76544673 eV
  | XC potential correction       :          13.92466324 Ha         378.90936558 eV
  | Free-atom electrostatic energy:         -33.32004492 Ha        -906.68455390 eV
  | Hartree energy correction     :          -1.03619492 Ha         -28.19629833 eV
  | van der Waals energy corr.    :           0.00000000 Ha           0.00000000 eV
  | Entropy correction            :           0.00000000 Ha           0.00000000 eV
  | ---------------------------
  | Total energy                  :         -76.17592260 Ha       -2072.85231951 eV
  | Total energy, T -> 0          :         -76.17592260 Ha       -2072.85231951 eV  <-- do not rely on this value for anything but (periodic) metals
  | Electronic free energy        :         -76.17592260 Ha       -2072.85231951 eV

  Derived energy quantities:
  | Kinetic energy                :          76.30324204 Ha        2076.31685775 eV
  | Electrostatic energy          :        -141.64673358 Ha       -3854.40373053 eV
  | Energy correction for multipole
  | error in Hartree potential    :          -0.00488008 Ha          -0.13279363 eV
  | Sum of eigenvalues per atom                           :        -611.05769306 eV
  | Total energy (T->0) per atom                          :       -1036.42615975 eV  <-- do not rely on this value for anything but (periodic) metals
  | Electronic free energy per atom                       :       -1036.42615975 eV

  Self-consistency convergence accuracy:
  | Change of charge/spin density : 0.2290E+00 0.5062E+00
  | Change of sum of eigenvalues  : 0.2793E+02 eV
  | Change of total energy        : -.4850E+00 eV

  End self-consistency iteration #     1       :  max(cpu_time)    wall_clock(cpu1)
  | Time for this iteration                    :        5.823 s           5.840 s
  | Charge density update                      :        3.497 s           3.506 s
  | Density mixing & preconditioning           :        0.203 s           0.204 s
  | Hartree multipole update                   :        0.003 s           0.003 s
  | Hartree multipole summation                :        0.274 s           0.274 s
  | Integration                                :        1.827 s           1.832 s
  | Solution of K.-S. eqns.                    :        0.016 s           0.017 s
  | Total energy evaluation                    :        0.000 s           0.001 s
------------------------------------------------------------

------------------------------------------------------------
          Begin self-consistency iteration #    2

  Date     :  20220221, Time     :  163352.620
------------------------------------------------------------
  Evaluating new KS density using the density matrix
  Evaluating density matrix
  Evaluating density matrix
  Time summed over all CPUs for getting density from density matrix: real work       27.170 s, elapsed       27.890 s
  Integration grid: deviation in total charge (<rho> - N_e) =   3.454210E-04
  | <rho_up-rho_dn> = N_up-N_dn =     -2.6107; <|rho_up-rho_dn|> =      2.6107
  Pulay mixing of updated and previous charge densities.

  Evaluating partitioned Hartree potential by multipole expansion.
  | Analytical far-field extrapolation by fixed multipoles:
  | Hartree multipole sum: apparent total charge =   0.493489E-03
  Summing up the Hartree potential.
  Time summed over all CPUs for potential: real work        2.162 s, elapsed        2.219 s
  | RMS charge density error from multipole expansion :   0.825450E-02
  | Average real-space part of the electrostatic potential :      0.26971038 eV

  Integrating Hamiltonian matrix: batch-based integration.
  Time summed over all CPUs for integration: real work       14.151 s, elapsed       14.540 s

  Updating Kohn-Sham eigenvalues, eigenvectors, occupation numbers, and Fermi level.
  Solving generalized eigenproblem
  Determining occupation numbers for Kohn-Sham eigenstates.
  | Chemical potential (Fermi level) in eV                 : -.50846890E+01
  | Error in electron count due to remaining E_F inaccuracy: -.14210855E-13
  | Maximum occupation number of highest empty state:  0.00E+00

  Current spin moment of the entire structure :
  | N = N_up - N_down (sum over all k points):         0.10000
  | S (sum over all k points)                :         0.05000

  What follows are estimated values for band gap, HOMO, LUMO, etc.
  | They are estimated on a discrete k-point grid and not necessarily exact.
  | For converged numbers, create a DOS and/or band structure plot on a denser k-grid.

  Highest occupied state (VBM) at     -5.40618537 eV (relative to internal zero)
  | Occupation number:      1.00000000
  | K-point:      11 at    0.333333    0.333333    0.000000 (in units of recip. lattice)
  | Spin channel:        1

  Lowest unoccupied state (CBM) at    -4.76289968 eV (relative to internal zero)
  | Occupation number:      0.00000000
  | K-point:      11 at    0.333333    0.333333    0.000000 (in units of recip. lattice)
  | Spin channel:        2

  ESTIMATED overall HOMO-LUMO gap:      0.64328569 eV between HOMO at k-point 11 and LUMO at k-point 11
  | This appears to be a direct band gap.
  The gap value is above 0.2 eV. Unless you are using a very sparse k-point grid,
  this system is most likely an insulator or a semiconductor.

  Total energy components:
  | Sum of eigenvalues            :         -43.92447236 Ha       -1195.24570647 eV
  | XC energy correction          :         -10.85238588 Ha        -295.30844498 eV
  | XC potential correction       :          13.94380587 Ha         379.43026294 eV
  | Free-atom electrostatic energy:         -33.32004492 Ha        -906.68455390 eV
  | Hartree energy correction     :          -2.06787240 Ha         -56.26967097 eV
  | van der Waals energy corr.    :           0.00000000 Ha           0.00000000 eV
  | Entropy correction            :           0.00000000 Ha           0.00000000 eV
  | ---------------------------
  | Total energy                  :         -76.22096970 Ha       -2074.07811339 eV
  | Total energy, T -> 0          :         -76.22096970 Ha       -2074.07811339 eV  <-- do not rely on this value for anything but (periodic) metals
  | Electronic free energy        :         -76.22096970 Ha       -2074.07811339 eV

  Derived energy quantities:
  | Kinetic energy                :          76.14756228 Ha        2072.08059581 eV
  | Electrostatic energy          :        -141.51614609 Ha       -3850.85026421 eV
  | Energy correction for multipole
  | error in Hartree potential    :          -0.01148087 Ha          -0.31241044 eV
  | Sum of eigenvalues per atom                           :        -597.62285324 eV
  | Total energy (T->0) per atom                          :       -1037.03905669 eV  <-- do not rely on this value for anything but (periodic) metals
  | Electronic free energy per atom                       :       -1037.03905669 eV

  Self-consistency convergence accuracy:
  | Change of charge/spin density : 0.1232E+00 0.3445E+00
  | Change of sum of eigenvalues  : 0.2687E+02 eV
  | Change of total energy        : -.1226E+01 eV

  End self-consistency iteration #     2       :  max(cpu_time)    wall_clock(cpu1)
  | Time for this iteration                    :        5.814 s           5.828 s
  | Charge density update                      :        3.488 s           3.496 s
  | Density mixing & preconditioning           :        0.205 s           0.206 s
  | Hartree multipole update                   :        0.002 s           0.002 s
  | Hartree multipole summation                :        0.282 s           0.282 s
  | Integration                                :        1.819 s           1.824 s
  | Solution of K.-S. eqns.                    :        0.016 s           0.016 s
  | Total energy evaluation                    :        0.000 s           0.001 s
------------------------------------------------------------

------------------------------------------------------------
          Begin self-consistency iteration #    3

  Date     :  20220221, Time     :  163358.450
------------------------------------------------------------
  Evaluating new KS density using the density matrix
  Evaluating density matrix
  Evaluating density matrix
  Time summed over all CPUs for getting density from density matrix: real work       27.129 s, elapsed       27.925 s
  Integration grid: deviation in total charge (<rho> - N_e) =   4.940798E-04
  | <rho_up-rho_dn> = N_up-N_dn =     -0.3455; <|rho_up-rho_dn|> =      0.3592
  Pulay mixing of updated and previous charge densities.

  Evaluating partitioned Hartree potential by multipole expansion.
  | Analytical far-field extrapolation by fixed multipoles:
  | Hartree multipole sum: apparent total charge =   0.277419E-03
  Summing up the Hartree potential.
  Time summed over all CPUs for potential: real work        2.151 s, elapsed        2.209 s
  | RMS charge density error from multipole expansion :   0.832071E-02
  | Average real-space part of the electrostatic potential :      0.25301835 eV

  Integrating Hamiltonian matrix: batch-based integration.
  Time summed over all CPUs for integration: real work       14.144 s, elapsed       14.589 s

  Updating Kohn-Sham eigenvalues, eigenvectors, occupation numbers, and Fermi level.
  Solving generalized eigenproblem
  Determining occupation numbers for Kohn-Sham eigenstates.
  | Chemical potential (Fermi level) in eV                 : -.53655455E+01
  | Error in electron count due to remaining E_F inaccuracy: -.14210855E-13
  | Maximum occupation number of highest empty state:  0.00E+00

  Current spin moment of the entire structure :
  | N = N_up - N_down (sum over all k points):         0.10000
  | S (sum over all k points)                :         0.05000

  What follows are estimated values for band gap, HOMO, LUMO, etc.
  | They are estimated on a discrete k-point grid and not necessarily exact.
  | For converged numbers, create a DOS and/or band structure plot on a denser k-grid.

  Highest occupied state (VBM) at     -5.57917837 eV (relative to internal zero)
  | Occupation number:      1.00000000
  | K-point:      11 at    0.333333    0.333333    0.000000 (in units of recip. lattice)
  | Spin channel:        1

  Lowest unoccupied state (CBM) at    -5.28112508 eV (relative to internal zero)
  | Occupation number:      0.00000000
  | K-point:      11 at    0.333333    0.333333    0.000000 (in units of recip. lattice)
  | Spin channel:        2

  ESTIMATED overall HOMO-LUMO gap:      0.29805330 eV between HOMO at k-point 11 and LUMO at k-point 11
  | This appears to be a direct band gap.
  The gap value is above 0.2 eV. Unless you are using a very sparse k-point grid,
  this system is most likely an insulator or a semiconductor.

  Total energy components:
  | Sum of eigenvalues            :         -44.18856224 Ha       -1202.43195749 eV
  | XC energy correction          :         -10.82173741 Ha        -294.47445774 eV
  | XC potential correction       :          13.90365694 Ha         378.33775493 eV
  | Free-atom electrostatic energy:         -33.32004492 Ha        -906.68455390 eV
  | Hartree energy correction     :          -1.79642443 Ha         -48.88319577 eV
  | van der Waals energy corr.    :           0.00000000 Ha           0.00000000 eV
  | Entropy correction            :           0.00000000 Ha           0.00000000 eV
  | ---------------------------
  | Total energy                  :         -76.22311206 Ha       -2074.13640998 eV
  | Total energy, T -> 0          :         -76.22311206 Ha       -2074.13640998 eV  <-- do not rely on this value for anything but (periodic) metals
  | Electronic free energy        :         -76.22311206 Ha       -2074.13640998 eV

  Derived energy quantities:
  | Kinetic energy                :          75.97967408 Ha        2067.51212560 eV
  | Electrostatic energy          :        -141.38104872 Ha       -3847.17407785 eV
  | Energy correction for multipole
  | error in Hartree potential    :          -0.01153094 Ha          -0.31377275 eV
  | Sum of eigenvalues per atom                           :        -601.21597875 eV
  | Total energy (T->0) per atom                          :       -1037.06820499 eV  <-- do not rely on this value for anything but (periodic) metals
  | Electronic free energy per atom                       :       -1037.06820499 eV

  Self-consistency convergence accuracy:
  | Change of charge/spin density : 0.3568E-01 0.5165E-01
  | Change of sum of eigenvalues  : -.7186E+01 eV
  | Change of total energy        : -.5830E-01 eV

  End self-consistency iteration #     3       :  max(cpu_time)    wall_clock(cpu1)
  | Time for this iteration                    :        5.817 s           5.832 s
  | Charge density update                      :        3.492 s           3.501 s
  | Density mixing & preconditioning           :        0.199 s           0.200 s
  | Hartree multipole update                   :        0.002 s           0.002 s
  | Hartree multipole summation                :        0.280 s           0.281 s
  | Integration                                :        1.826 s           1.830 s
  | Solution of K.-S. eqns.                    :        0.016 s           0.016 s
  | Total energy evaluation                    :        0.000 s           0.000 s
------------------------------------------------------------

------------------------------------------------------------
          Begin self-consistency iteration #    4

  Date     :  20220221, Time     :  163404.284
------------------------------------------------------------
  Evaluating new KS density using the density matrix
  Evaluating density matrix
  Evaluating density matrix
  Time summed over all CPUs for getting density from density matrix: real work       27.049 s, elapsed       27.795 s
  Integration grid: deviation in total charge (<rho> - N_e) =   2.779890E-04
  | <rho_up-rho_dn> = N_up-N_dn =     -0.0089; <|rho_up-rho_dn|> =      0.1086
  Pulay mixing of updated and previous charge densities.

  Evaluating partitioned Hartree potential by multipole expansion.
  | Analytical far-field extrapolation by fixed multipoles:
  | Hartree multipole sum: apparent total charge =   0.423985E-03
  Summing up the Hartree potential.
  Time summed over all CPUs for potential: real work        2.149 s, elapsed        2.206 s
  | RMS charge density error from multipole expansion :   0.817835E-02
  | Average real-space part of the electrostatic potential :      0.24371660 eV

  Integrating Hamiltonian matrix: batch-based integration.
  Time summed over all CPUs for integration: real work       14.205 s, elapsed       14.629 s

  Updating Kohn-Sham eigenvalues, eigenvectors, occupation numbers, and Fermi level.
  Solving generalized eigenproblem
  Determining occupation numbers for Kohn-Sham eigenstates.
  | Chemical potential (Fermi level) in eV                 : -.55158566E+01
  | Error in electron count due to remaining E_F inaccuracy: -.14210855E-13
  | Maximum occupation number of highest empty state:  0.00E+00

  Current spin moment of the entire structure :
  | N = N_up - N_down (sum over all k points):         0.10000
  | S (sum over all k points)                :         0.05000

  What follows are estimated values for band gap, HOMO, LUMO, etc.
  | They are estimated on a discrete k-point grid and not necessarily exact.
  | For converged numbers, create a DOS and/or band structure plot on a denser k-grid.

  Highest occupied state (VBM) at     -5.61707896 eV (relative to internal zero)
  | Occupation number:      1.00000000
  | K-point:      11 at    0.333333    0.333333    0.000000 (in units of recip. lattice)
  | Spin channel:        1

  Lowest unoccupied state (CBM) at    -5.42508143 eV (relative to internal zero)
  | Occupation number:      0.00000000
  | K-point:      11 at    0.333333    0.333333    0.000000 (in units of recip. lattice)
  | Spin channel:        2

  ESTIMATED overall HOMO-LUMO gap:      0.19199753 eV between HOMO at k-point 11 and LUMO at k-point 11
  | This appears to be a direct band gap.
  The gap value is rather small. This may be a metal or a small-gap semiconductor.
  Since we use a finite k-point grid, a DOS and/or band structure plot is required
  for an unambiguous assignment.

  Total energy components:
  | Sum of eigenvalues            :         -44.25916495 Ha       -1204.35315507 eV
  | XC energy correction          :         -10.81473453 Ha        -294.28389959 eV
  | XC potential correction       :          13.89464364 Ha         378.09249058 eV
  | Free-atom electrostatic energy:         -33.32004492 Ha        -906.68455390 eV
  | Hartree energy correction     :          -1.72406508 Ha         -46.91419787 eV
  | van der Waals energy corr.    :           0.00000000 Ha           0.00000000 eV
  | Entropy correction            :           0.00000000 Ha           0.00000000 eV
  | ---------------------------
  | Total energy                  :         -76.22336584 Ha       -2074.14331585 eV
  | Total energy, T -> 0          :         -76.22336584 Ha       -2074.14331585 eV  <-- do not rely on this value for anything but (periodic) metals
  | Electronic free energy        :         -76.22336584 Ha       -2074.14331585 eV

  Derived energy quantities:
  | Kinetic energy                :          75.95918386 Ha        2066.95455825 eV
  | Electrostatic energy          :        -141.36781517 Ha       -3846.81397451 eV
  | Energy correction for multipole
  | error in Hartree potential    :          -0.01139995 Ha          -0.31020834 eV
  | Sum of eigenvalues per atom                           :        -602.17657753 eV
  | Total energy (T->0) per atom                          :       -1037.07165793 eV  <-- do not rely on this value for anything but (periodic) metals
  | Electronic free energy per atom                       :       -1037.07165793 eV

  Self-consistency convergence accuracy:
  | Change of charge/spin density : 0.1008E-01 0.1551E-01
  | Change of sum of eigenvalues  : -.1921E+01 eV
  | Change of total energy        : -.6906E-02 eV

  End self-consistency iteration #     4       :  max(cpu_time)    wall_clock(cpu1)
  | Time for this iteration                    :        5.805 s           5.821 s
  | Charge density update                      :        3.476 s           3.484 s
  | Density mixing & preconditioning           :        0.201 s           0.202 s
  | Hartree multipole update                   :        0.002 s           0.002 s
  | Hartree multipole summation                :        0.280 s           0.281 s
  | Integration                                :        1.829 s           1.834 s
  | Solution of K.-S. eqns.                    :        0.016 s           0.016 s
  | Total energy evaluation                    :        0.000 s           0.000 s
------------------------------------------------------------

------------------------------------------------------------
          Begin self-consistency iteration #    5

  Date     :  20220221, Time     :  163410.110
------------------------------------------------------------
  Evaluating new KS density using the density matrix
  Evaluating density matrix
  Evaluating density matrix
  Time summed over all CPUs for getting density from density matrix: real work       26.925 s, elapsed       27.702 s
  Integration grid: deviation in total charge (<rho> - N_e) =   4.245330E-04
  | <rho_up-rho_dn> = N_up-N_dn =      0.0996; <|rho_up-rho_dn|> =      0.1096
  Pulay mixing of updated and previous charge densities.

  Evaluating partitioned Hartree potential by multipole expansion.
  | Analytical far-field extrapolation by fixed multipoles:
  | Hartree multipole sum: apparent total charge =   0.322016E-03
  Summing up the Hartree potential.
  Time summed over all CPUs for potential: real work        2.154 s, elapsed        2.212 s
  | RMS charge density error from multipole expansion :   0.811971E-02
  | Average real-space part of the electrostatic potential :      0.24459585 eV

  Integrating Hamiltonian matrix: batch-based integration.
  Time summed over all CPUs for integration: real work       14.029 s, elapsed       14.575 s

  Updating Kohn-Sham eigenvalues, eigenvectors, occupation numbers, and Fermi level.
  Solving generalized eigenproblem
  Determining occupation numbers for Kohn-Sham eigenstates.
  | Chemical potential (Fermi level) in eV                 : -.55513756E+01
  | Error in electron count due to remaining E_F inaccuracy: -.14210855E-13
  | Maximum occupation number of highest empty state:  0.00E+00

  Current spin moment of the entire structure :
  | N = N_up - N_down (sum over all k points):         0.10000
  | S (sum over all k points)                :         0.05000

  What follows are estimated values for band gap, HOMO, LUMO, etc.
  | They are estimated on a discrete k-point grid and not necessarily exact.
  | For converged numbers, create a DOS and/or band structure plot on a denser k-grid.

  Highest occupied state (VBM) at     -5.56407675 eV (relative to internal zero)
  | Occupation number:      1.00000000
  | K-point:      11 at    0.333333    0.333333    0.000000 (in units of recip. lattice)
  | Spin channel:        1

  Lowest unoccupied state (CBM) at    -5.36664968 eV (relative to internal zero)
  | Occupation number:      0.00000000
  | K-point:      11 at    0.333333    0.333333    0.000000 (in units of recip. lattice)
  | Spin channel:        2

  ESTIMATED overall HOMO-LUMO gap:      0.19742707 eV between HOMO at k-point 11 and LUMO at k-point 11
  | This appears to be a direct band gap.
  The gap value is rather small. This may be a metal or a small-gap semiconductor.
  Since we use a finite k-point grid, a DOS and/or band structure plot is required
  for an unambiguous assignment.

  Total energy components:
  | Sum of eigenvalues            :         -44.21986605 Ha       -1203.28377756 eV
  | XC energy correction          :         -10.81866485 Ha        -294.39084903 eV
  | XC potential correction       :          13.89961608 Ha         378.22779758 eV
  | Free-atom electrostatic energy:         -33.32004492 Ha        -906.68455390 eV
  | Hartree energy correction     :          -1.76440219 Ha         -48.01182641 eV
  | van der Waals energy corr.    :           0.00000000 Ha           0.00000000 eV
  | Entropy correction            :          -0.00000000 Ha          -0.00000000 eV
  | ---------------------------
  | Total energy                  :         -76.22336193 Ha       -2074.14320931 eV
  | Total energy, T -> 0          :         -76.22336193 Ha       -2074.14320931 eV  <-- do not rely on this value for anything but (periodic) metals
  | Electronic free energy        :         -76.22336193 Ha       -2074.14320931 eV

  Derived energy quantities:
  | Kinetic energy                :          75.99089426 Ha        2067.81744234 eV
  | Electrostatic energy          :        -141.39559134 Ha       -3847.56980262 eV
  | Energy correction for multipole
  | error in Hartree potential    :          -0.01136722 Ha          -0.30931793 eV
  | Sum of eigenvalues per atom                           :        -601.64188878 eV
  | Total energy (T->0) per atom                          :       -1037.07160465 eV  <-- do not rely on this value for anything but (periodic) metals
  | Electronic free energy per atom                       :       -1037.07160465 eV

  Self-consistency convergence accuracy:
  | Change of charge/spin density : 0.3479E-02 0.2371E-02
  | Change of sum of eigenvalues  : 0.1069E+01 eV
  | Change of total energy        : 0.1065E-03 eV

  End self-consistency iteration #     5       :  max(cpu_time)    wall_clock(cpu1)
  | Time for this iteration                    :        5.785 s           5.800 s
  | Charge density update                      :        3.464 s           3.472 s
  | Density mixing & preconditioning           :        0.199 s           0.200 s
  | Hartree multipole update                   :        0.002 s           0.002 s
  | Hartree multipole summation                :        0.281 s           0.281 s
  | Integration                                :        1.822 s           1.827 s
  | Solution of K.-S. eqns.                    :        0.015 s           0.016 s
  | Total energy evaluation                    :        0.000 s           0.000 s
------------------------------------------------------------

------------------------------------------------------------
          Begin self-consistency iteration #    6

  Date     :  20220221, Time     :  163415.912
------------------------------------------------------------
  Evaluating new KS density using the density matrix
  Evaluating density matrix
  Evaluating density matrix
  Time summed over all CPUs for getting density from density matrix: real work       27.084 s, elapsed       28.749 s
  Integration grid: deviation in total charge (<rho> - N_e) =   3.225607E-04
  | <rho_up-rho_dn> = N_up-N_dn =      0.1079; <|rho_up-rho_dn|> =      0.1133
  Pulay mixing of updated and previous charge densities.

  Evaluating partitioned Hartree potential by multipole expansion.
  | Analytical far-field extrapolation by fixed multipoles:
  | Hartree multipole sum: apparent total charge =   0.238825E-03
  Summing up the Hartree potential.
  Time summed over all CPUs for potential: real work        2.159 s, elapsed        2.214 s
  | RMS charge density error from multipole expansion :   0.811452E-02
  | Average real-space part of the electrostatic potential :      0.24496870 eV

  Integrating Hamiltonian matrix: batch-based integration.
  Time summed over all CPUs for integration: real work       14.491 s, elapsed       15.946 s

  Updating Kohn-Sham eigenvalues, eigenvectors, occupation numbers, and Fermi level.
  Solving generalized eigenproblem
  Determining occupation numbers for Kohn-Sham eigenstates.
  | Chemical potential (Fermi level) in eV                 : -.55457400E+01
  | Error in electron count due to remaining E_F inaccuracy: -.14210855E-13
  | Maximum occupation number of highest empty state:  0.00E+00

  Current spin moment of the entire structure :
  | N = N_up - N_down (sum over all k points):         0.10000
  | S (sum over all k points)                :         0.05000

  What follows are estimated values for band gap, HOMO, LUMO, etc.
  | They are estimated on a discrete k-point grid and not necessarily exact.
  | For converged numbers, create a DOS and/or band structure plot on a denser k-grid.

  Highest occupied state (VBM) at     -5.55876209 eV (relative to internal zero)
  | Occupation number:      1.00000000
  | K-point:      11 at    0.333333    0.333333    0.000000 (in units of recip. lattice)
  | Spin channel:        1

  Lowest unoccupied state (CBM) at    -5.36307494 eV (relative to internal zero)
  | Occupation number:      0.00000000
  | K-point:      11 at    0.333333    0.333333    0.000000 (in units of recip. lattice)
  | Spin channel:        2

  ESTIMATED overall HOMO-LUMO gap:      0.19568714 eV between HOMO at k-point 11 and LUMO at k-point 11
  | This appears to be a direct band gap.
  The gap value is rather small. This may be a metal or a small-gap semiconductor.
  Since we use a finite k-point grid, a DOS and/or band structure plot is required
  for an unambiguous assignment.

  Total energy components:
  | Sum of eigenvalues            :         -44.21679076 Ha       -1203.20009479 eV
  | XC energy correction          :         -10.81897704 Ha        -294.39934417 eV
  | XC potential correction       :          13.90001441 Ha         378.23863679 eV
  | Free-atom electrostatic energy:         -33.32004492 Ha        -906.68455390 eV
  | Hartree energy correction     :          -1.76756328 Ha         -48.09784415 eV
  | van der Waals energy corr.    :           0.00000000 Ha           0.00000000 eV
  | Entropy correction            :          -0.00000000 Ha          -0.00000000 eV
  | ---------------------------
  | Total energy                  :         -76.22336159 Ha       -2074.14320021 eV
  | Total energy, T -> 0          :         -76.22336159 Ha       -2074.14320021 eV  <-- do not rely on this value for anything but (periodic) metals
  | Electronic free energy        :         -76.22336159 Ha       -2074.14320021 eV

  Derived energy quantities:
  | Kinetic energy                :          75.99318030 Ha        2067.87964857 eV
  | Electrostatic energy          :        -141.39756485 Ha       -3847.62350462 eV
  | Energy correction for multipole
  | error in Hartree potential    :          -0.01136646 Ha          -0.30929722 eV
  | Sum of eigenvalues per atom                           :        -601.60004739 eV
  | Total energy (T->0) per atom                          :       -1037.07160011 eV  <-- do not rely on this value for anything but (periodic) metals
  | Electronic free energy per atom                       :       -1037.07160011 eV

  Self-consistency convergence accuracy:
  | Change of charge/spin density : 0.2876E-03 0.3886E-03
  | Change of sum of eigenvalues  : 0.8368E-01 eV
  | Change of total energy        : 0.9098E-05 eV

  End self-consistency iteration #     6       :  max(cpu_time)    wall_clock(cpu1)
  | Time for this iteration                    :        6.083 s           6.098 s
  | Charge density update                      :        3.595 s           3.603 s
  | Density mixing & preconditioning           :        0.193 s           0.193 s
  | Hartree multipole update                   :        0.002 s           0.002 s
  | Hartree multipole summation                :        0.281 s           0.282 s
  | Integration                                :        1.994 s           1.999 s
  | Solution of K.-S. eqns.                    :        0.016 s           0.016 s
  | Total energy evaluation                    :        0.000 s           0.001 s
------------------------------------------------------------

------------------------------------------------------------
          Begin self-consistency iteration #    7

  Date     :  20220221, Time     :  163422.012
------------------------------------------------------------
  Evaluating new KS density using the density matrix
  Evaluating density matrix
  Evaluating density matrix
  Time summed over all CPUs for getting density from density matrix: real work       26.845 s, elapsed       28.782 s
  Integration grid: deviation in total charge (<rho> - N_e) =   2.393689E-04
  | <rho_up-rho_dn> = N_up-N_dn =      0.1108; <|rho_up-rho_dn|> =      0.1147
  Pulay mixing of updated and previous charge densities.

  Evaluating partitioned Hartree potential by multipole expansion.
  | Analytical far-field extrapolation by fixed multipoles:
  | Hartree multipole sum: apparent total charge =   0.234076E-03
  Summing up the Hartree potential.
  Time summed over all CPUs for potential: real work        2.170 s, elapsed        2.257 s
  | RMS charge density error from multipole expansion :   0.811425E-02
  | Average real-space part of the electrostatic potential :      0.24497882 eV

  Integrating Hamiltonian matrix: batch-based integration.
  Time summed over all CPUs for integration: real work       14.715 s, elapsed       15.303 s

  Updating Kohn-Sham eigenvalues, eigenvectors, occupation numbers, and Fermi level.
  Solving generalized eigenproblem
  Determining occupation numbers for Kohn-Sham eigenstates.
  | Chemical potential (Fermi level) in eV                 : -.55457524E+01
  | Error in electron count due to remaining E_F inaccuracy: -.14210855E-13
  | Maximum occupation number of highest empty state:  0.00E+00

  Current spin moment of the entire structure :
  | N = N_up - N_down (sum over all k points):         0.10000
  | S (sum over all k points)                :         0.05000

  What follows are estimated values for band gap, HOMO, LUMO, etc.
  | They are estimated on a discrete k-point grid and not necessarily exact.
  | For converged numbers, create a DOS and/or band structure plot on a denser k-grid.

  Highest occupied state (VBM) at     -5.55875344 eV (relative to internal zero)
  | Occupation number:      1.00000000
  | K-point:      11 at    0.333333    0.333333    0.000000 (in units of recip. lattice)
  | Spin channel:        1

  Lowest unoccupied state (CBM) at    -5.36309142 eV (relative to internal zero)
  | Occupation number:      0.00000000
  | K-point:      11 at    0.333333    0.333333    0.000000 (in units of recip. lattice)
  | Spin channel:        2

  ESTIMATED overall HOMO-LUMO gap:      0.19566202 eV between HOMO at k-point 11 and LUMO at k-point 11
  | This appears to be a direct band gap.
  The gap value is rather small. This may be a metal or a small-gap semiconductor.
  Since we use a finite k-point grid, a DOS and/or band structure plot is required
  for an unambiguous assignment.

  Total energy components:
  | Sum of eigenvalues            :         -44.21679380 Ha       -1203.20017736 eV
  | XC energy correction          :         -10.81897771 Ha        -294.39936235 eV
  | XC potential correction       :          13.90001542 Ha         378.23866405 eV
  | Free-atom electrostatic energy:         -33.32004492 Ha        -906.68455390 eV
  | Hartree energy correction     :          -1.76756069 Ha         -48.09777347 eV
  | van der Waals energy corr.    :           0.00000000 Ha           0.00000000 eV
  | Entropy correction            :          -0.00000000 Ha          -0.00000000 eV
  | ---------------------------
  | Total energy                  :         -76.22336170 Ha       -2074.14320303 eV
  | Total energy, T -> 0          :         -76.22336170 Ha       -2074.14320303 eV  <-- do not rely on this value for anything but (periodic) metals
  | Electronic free energy        :         -76.22336170 Ha       -2074.14320303 eV

  Derived energy quantities:
  | Kinetic energy                :          75.99319876 Ha        2067.88015088 eV
  | Electrostatic energy          :        -141.39758275 Ha       -3847.62399156 eV
  | Energy correction for multipole
  | error in Hartree potential    :          -0.01136621 Ha          -0.30929041 eV
  | Sum of eigenvalues per atom                           :        -601.60008868 eV
  | Total energy (T->0) per atom                          :       -1037.07160151 eV  <-- do not rely on this value for anything but (periodic) metals
  | Electronic free energy per atom                       :       -1037.07160151 eV

  Self-consistency convergence accuracy:
  | Change of charge/spin density : 0.1350E-02 0.1778E-03
  | Change of sum of eigenvalues  : -.8257E-04 eV
  | Change of total energy        : -.2818E-05 eV

  End self-consistency iteration #     7       :  max(cpu_time)    wall_clock(cpu1)
  | Time for this iteration                    :        6.018 s           6.034 s
  | Charge density update                      :        3.598 s           3.607 s
  | Density mixing & preconditioning           :        0.200 s           0.200 s
  | Hartree multipole update                   :        0.002 s           0.002 s
  | Hartree multipole summation                :        0.286 s           0.287 s
  | Integration                                :        1.913 s           1.919 s
  | Solution of K.-S. eqns.                    :        0.016 s           0.016 s
  | Total energy evaluation                    :        0.000 s           0.001 s
------------------------------------------------------------

------------------------------------------------------------
          Begin self-consistency iteration #    8

  Date     :  20220221, Time     :  163428.050
------------------------------------------------------------
  Evaluating new KS density using the density matrix
  Evaluating density matrix
  Evaluating density matrix
  Time summed over all CPUs for getting density from density matrix: real work       26.644 s, elapsed       28.556 s
  Integration grid: deviation in total charge (<rho> - N_e) =   2.346205E-04
  | <rho_up-rho_dn> = N_up-N_dn =      0.1109; <|rho_up-rho_dn|> =      0.1147
  Pulay mixing of updated and previous charge densities.

  Evaluating partitioned Hartree potential by multipole expansion.
  | Analytical far-field extrapolation by fixed multipoles:
  | Hartree multipole sum: apparent total charge =   0.130108E-03
  Summing up the Hartree potential.
  Time summed over all CPUs for potential: real work        2.160 s, elapsed        2.215 s
  | RMS charge density error from multipole expansion :   0.810964E-02
  | Average real-space part of the electrostatic potential :      0.24519116 eV

  Integrating Hamiltonian matrix: batch-based integration.
  Time summed over all CPUs for integration: real work       15.194 s, elapsed       16.313 s

  Updating Kohn-Sham eigenvalues, eigenvectors, occupation numbers, and Fermi level.
  Solving generalized eigenproblem
  Determining occupation numbers for Kohn-Sham eigenstates.
  | Chemical potential (Fermi level) in eV                 : -.55462342E+01
  | Error in electron count due to remaining E_F inaccuracy: -.14210855E-13
  | Maximum occupation number of highest empty state:  0.00E+00

  Current spin moment of the entire structure :
  | N = N_up - N_down (sum over all k points):         0.10000
  | S (sum over all k points)                :         0.05000

  What follows are estimated values for band gap, HOMO, LUMO, etc.
  | They are estimated on a discrete k-point grid and not necessarily exact.
  | For converged numbers, create a DOS and/or band structure plot on a denser k-grid.

  Highest occupied state (VBM) at     -5.55879957 eV (relative to internal zero)
  | Occupation number:      1.00000000
  | K-point:      11 at    0.333333    0.333333    0.000000 (in units of recip. lattice)
  | Spin channel:        1

  Lowest unoccupied state (CBM) at    -5.36346665 eV (relative to internal zero)
  | Occupation number:      0.00000000
  | K-point:      11 at    0.333333    0.333333    0.000000 (in units of recip. lattice)
  | Spin channel:        2

  ESTIMATED overall HOMO-LUMO gap:      0.19533292 eV between HOMO at k-point 11 and LUMO at k-point 11
  | This appears to be a direct band gap.
  The gap value is rather small. This may be a metal or a small-gap semiconductor.
  Since we use a finite k-point grid, a DOS and/or band structure plot is required
  for an unambiguous assignment.

  Total energy components:
  | Sum of eigenvalues            :         -44.21701752 Ha       -1203.20626505 eV
  | XC energy correction          :         -10.81897389 Ha        -294.39925849 eV
  | XC potential correction       :          13.90001381 Ha         378.23862047 eV
  | Free-atom electrostatic energy:         -33.32004492 Ha        -906.68455390 eV
  | Hartree energy correction     :          -1.76733888 Ha         -48.09173782 eV
  | van der Waals energy corr.    :           0.00000000 Ha           0.00000000 eV
  | Entropy correction            :          -0.00000000 Ha          -0.00000000 eV
  | ---------------------------
  | Total energy                  :         -76.22336139 Ha       -2074.14319478 eV
  | Total energy, T -> 0          :         -76.22336139 Ha       -2074.14319478 eV  <-- do not rely on this value for anything but (periodic) metals
  | Electronic free energy        :         -76.22336139 Ha       -2074.14319478 eV

  Derived energy quantities:
  | Kinetic energy                :          75.99337352 Ha        2067.88490618 eV
  | Electrostatic energy          :        -141.39776102 Ha       -3847.62884247 eV
  | Energy correction for multipole
  | error in Hartree potential    :          -0.01136134 Ha          -0.30915777 eV
  | Sum of eigenvalues per atom                           :        -601.60313252 eV
  | Total energy (T->0) per atom                          :       -1037.07159739 eV  <-- do not rely on this value for anything but (periodic) metals
  | Electronic free energy per atom                       :       -1037.07159739 eV

  Self-consistency convergence accuracy:
  | Change of charge/spin density : 0.1818E-02 0.2200E-03
  | Change of sum of eigenvalues  : -.6088E-02 eV
  | Change of total energy        : 0.8244E-05 eV

  End self-consistency iteration #     8       :  max(cpu_time)    wall_clock(cpu1)
  | Time for this iteration                    :        6.102 s           6.117 s
  | Charge density update                      :        3.571 s           3.579 s
  | Density mixing & preconditioning           :        0.191 s           0.192 s
  | Hartree multipole update                   :        0.002 s           0.002 s
  | Hartree multipole summation                :        0.281 s           0.282 s
  | Integration                                :        2.039 s           2.044 s
  | Solution of K.-S. eqns.                    :        0.016 s           0.016 s
  | Total energy evaluation                    :        0.000 s           0.001 s
------------------------------------------------------------

------------------------------------------------------------
          Begin self-consistency iteration #    9

  Date     :  20220221, Time     :  163434.170
------------------------------------------------------------
  Evaluating new KS density using the density matrix
  Evaluating density matrix
  Evaluating density matrix
  Time summed over all CPUs for getting density from density matrix: real work       26.536 s, elapsed       28.601 s
  Integration grid: deviation in total charge (<rho> - N_e) =   1.306516E-04
  | <rho_up-rho_dn> = N_up-N_dn =      0.1111; <|rho_up-rho_dn|> =      0.1148
  Pulay mixing of updated and previous charge densities.

  Evaluating partitioned Hartree potential by multipole expansion.
  | Analytical far-field extrapolation by fixed multipoles:
  | Hartree multipole sum: apparent total charge =   0.137263E-04
  Summing up the Hartree potential.
  Time summed over all CPUs for potential: real work        2.174 s, elapsed        2.227 s
  | RMS charge density error from multipole expansion :   0.810759E-02
  | Average real-space part of the electrostatic potential :      0.24549130 eV

  Integrating Hamiltonian matrix: batch-based integration.
  Time summed over all CPUs for integration: real work       15.215 s, elapsed       16.615 s

  Updating Kohn-Sham eigenvalues, eigenvectors, occupation numbers, and Fermi level.
  Solving generalized eigenproblem
  Determining occupation numbers for Kohn-Sham eigenstates.
  | Chemical potential (Fermi level) in eV                 : -.55456098E+01
  | Error in electron count due to remaining E_F inaccuracy: -.14210855E-13
  | Maximum occupation number of highest empty state:  0.00E+00

  Current spin moment of the entire structure :
  | N = N_up - N_down (sum over all k points):         0.10000
[...]
  | Hartree multipole update                   :        0.002 s           0.002 s
  | Hartree multipole summation                :        0.282 s           0.283 s
  | Integration                                :        1.859 s           1.864 s
  | Solution of K.-S. eqns.                    :        0.016 s           0.016 s
  | Total energy evaluation                    :        0.000 s           0.000 s
------------------------------------------------------------
  Obtaining max. number of non-zero basis functions in each batch .
  Evaluating KS electron density on previously omitted grid points, using the density matrix.
  Evaluating density matrix
  Evaluating density matrix
  Evaluating non-empirical van der Waals correction (Tkatchenko/Scheffler 2009).
  Performing Hirshfeld analysis of fragment charges and moments.
  ----------------------------------------------------------------------
  | Atom     1: C
  |   Hirshfeld charge        :     -0.00003341
  |   Free atom volume        :     38.37861207
  |   Hirshfeld volume        :     32.34297074
  |   Hirshfeld spin moment   :      0.05555925
  |   Hirshfeld dipole vector :     -0.00004856      -0.00000013       0.00000002
  |   Hirshfeld dipole moment :      0.00004856
  |   Hirshfeld second moments:      0.08560711      -0.00000028       0.00000000
  |                                 -0.00000028       0.08542756      -0.00000000
  |                                  0.00000000      -0.00000000       0.25119481
  ----------------------------------------------------------------------
  | Atom     2: C
  |   Hirshfeld charge        :     -0.00003341
  |   Free atom volume        :     38.37861207
  |   Hirshfeld volume        :     32.34297074
  |   Hirshfeld spin moment   :      0.05555925
  |   Hirshfeld dipole vector :      0.00004856       0.00000013      -0.00000002
  |   Hirshfeld dipole moment :      0.00004856
  |   Hirshfeld second moments:      0.08560711      -0.00000028       0.00000000
  |                                 -0.00000028       0.08542756       0.00000000
  |                                  0.00000000       0.00000000       0.25119481
  ----------------------------------------------------------------------

  Converging periodic supercell size for vdw calculation.

  Total energy components:
  | Sum of eigenvalues            :         -44.21677536 Ha       -1203.19967579 eV
  | XC energy correction          :         -10.81900860 Ha        -294.40020287 eV
  | XC potential correction       :          13.90006222 Ha         378.23993770 eV
  | Free-atom electrostatic energy:         -33.32004492 Ha        -906.68455390 eV
  | Hartree energy correction     :          -1.76759461 Ha         -48.09869652 eV
  | van der Waals energy corr.    :          -0.00381850 Ha          -0.10390676 eV
  | Entropy correction            :          -0.00000000 Ha          -0.00000000 eV
  | ---------------------------
  | Total energy                  :         -76.22717977 Ha       -2074.24709815 eV
  | Total energy, T -> 0          :         -76.22717977 Ha       -2074.24709815 eV  <-- do not rely on this value for anything but (periodic) metals
  | Electronic free energy        :         -76.22717977 Ha       -2074.24709815 eV

  Derived energy quantities:
  | Kinetic energy                :          75.99343756 Ha        2067.88664896 eV
  | Electrostatic energy          :        -141.39779023 Ha       -3847.62963747 eV
  | Energy correction for multipole
  | error in Hartree potential    :          -0.01135741 Ha          -0.30905081 eV
  | Sum of eigenvalues per atom                           :        -601.59983789 eV
  | Total energy (T->0) per atom                          :       -1037.12354907 eV  <-- do not rely on this value for anything but (periodic) metals
  | Electronic free energy per atom                       :       -1037.12354907 eV
  Timings for VdW correction (Tkatchenko-Scheffler 2009 or later):
  | CPU time:        1.284 s, Wall clock time:        1.287 s.

  Energy and forces in a compact form:
  | Total energy uncorrected      :         -0.207424709814561E+04 eV
  | Total energy corrected        :         -0.207424709814561E+04 eV  <-- do not rely on this value for anything but (periodic) metals
  | Electronic free energy        :         -0.207424709814561E+04 eV

  ------------------------------------ 
  Start decomposition of the XC Energy 
  ------------------------------------ 
  Hartree-Fock part   :          0.000000000 Ha              0.000000000 eV
  ------------------------------------ 
  X Energy            :        -10.399187411 Ha           -282.976287121 eV
  C Energy GGA        :         -0.419821187 Ha            -11.423915750 eV
  Total XC Energy     :        -10.819008598 Ha           -294.400202871 eV
  LDA X and C from self-consistent density 
  X Energy LDA        :         -9.434703850 Ha           -256.731354117 eV
  C Energy LDA        :         -0.796098642 Ha            -21.662946237 eV
  ------------------------------------ 
  End decomposition of the XC Energy 
  ------------------------------------ 
  Post-scf processing of Kohn-Sham eigenvalues on a denser k-point grid.
  | Using dos_kgrid_factors to calculate post-scf total density of states.
  | Electron chemical potential:    -5.545724659185 eV.
  Integrating Hamiltonian matrix: batch-based integration.
  Time summed over all CPUs for integration: real work       13.978 s, elapsed       15.119 s
  Processing batch of k-points:     1     1     1
  Processing batch of k-points:     1     2     1
  Processing batch of k-points:     1     3     1
  Processing batch of k-points:     1     4     1
  Processing batch of k-points:     1     5     1
  Processing batch of k-points:     1     6     1
  Processing batch of k-points:     1     7     1
  Processing batch of k-points:     1     8     1
  Processing batch of k-points:     1     9     1
  Processing batch of k-points:     1    10     1
  Processing batch of k-points:     1    11     1
  Processing batch of k-points:     1    12     1
  Processing batch of k-points:     1    13     1
  Processing batch of k-points:     1    14     1
  Processing batch of k-points:     1    15     1
  Processing batch of k-points:     2     1     1
  Processing batch of k-points:     2     2     1
  Processing batch of k-points:     2     3     1
  Processing batch of k-points:     2     4     1
  Processing batch of k-points:     2     5     1
  Processing batch of k-points:     2     6     1
  Processing batch of k-points:     2     7     1
  Processing batch of k-points:     2     8     1
  Processing batch of k-points:     2     9     1
  Processing batch of k-points:     2    10     1
  Processing batch of k-points:     2    11     1
  Processing batch of k-points:     2    12     1
  Processing batch of k-points:     2    13     1
  Processing batch of k-points:     2    14     1
  Processing batch of k-points:     2    15     1
  Processing batch of k-points:     3     1     1
  Processing batch of k-points:     3     2     1
  Processing batch of k-points:     3     3     1
  Processing batch of k-points:     3     4     1
  Processing batch of k-points:     3     5     1
  Processing batch of k-points:     3     6     1
  Processing batch of k-points:     3     7     1
  Processing batch of k-points:     3     8     1
  Processing batch of k-points:     3     9     1
  Processing batch of k-points:     3    10     1
  Processing batch of k-points:     3    11     1
  Processing batch of k-points:     3    12     1
  Processing batch of k-points:     3    13     1
  Processing batch of k-points:     3    14     1
  Processing batch of k-points:     3    15     1
  Processing batch of k-points:     4     1     1
  Processing batch of k-points:     4     2     1
  Processing batch of k-points:     4     3     1
  Processing batch of k-points:     4     4     1
  Processing batch of k-points:     4     5     1
  Processing batch of k-points:     4     6     1
  Processing batch of k-points:     4     7     1
  Processing batch of k-points:     4     8     1
  Processing batch of k-points:     4     9     1
  Processing batch of k-points:     4    10     1
  Processing batch of k-points:     4    11     1
  Processing batch of k-points:     4    12     1
  Processing batch of k-points:     4    13     1
  Processing batch of k-points:     4    14     1
  Processing batch of k-points:     4    15     1
  Processing batch of k-points:     5     1     1
  Processing batch of k-points:     5     2     1
  Processing batch of k-points:     5     3     1
  Processing batch of k-points:     5     4     1
  Processing batch of k-points:     5     5     1
  Processing batch of k-points:     5     6     1
  Processing batch of k-points:     5     7     1
  Processing batch of k-points:     5     8     1
  Processing batch of k-points:     5     9     1
  Processing batch of k-points:     5    10     1
  Processing batch of k-points:     5    11     1
  Processing batch of k-points:     5    12     1
  Processing batch of k-points:     5    13     1
  Processing batch of k-points:     5    14     1
  Processing batch of k-points:     5    15     1
  Processing batch of k-points:     6     1     1
  Processing batch of k-points:     6     2     1
  Processing batch of k-points:     6     3     1
  Processing batch of k-points:     6     4     1
  Processing batch of k-points:     6     5     1
  Processing batch of k-points:     6     6     1
  Processing batch of k-points:     6     7     1
  Processing batch of k-points:     6     8     1
  Processing batch of k-points:     6     9     1
  Processing batch of k-points:     6    10     1
  Processing batch of k-points:     6    11     1
  Processing batch of k-points:     6    12     1
  Processing batch of k-points:     6    13     1
  Processing batch of k-points:     6    14     1
  Processing batch of k-points:     6    15     1
  Processing batch of k-points:     7     1     1
  Processing batch of k-points:     7     2     1
  Processing batch of k-points:     7     3     1
  Processing batch of k-points:     7     4     1
  Processing batch of k-points:     7     5     1
  Processing batch of k-points:     7     6     1
  Processing batch of k-points:     7     7     1
  Processing batch of k-points:     7     8     1
  Processing batch of k-points:     7     9     1
  Processing batch of k-points:     7    10     1
  Processing batch of k-points:     7    11     1
  Processing batch of k-points:     7    12     1
  Processing batch of k-points:     7    13     1
  Processing batch of k-points:     7    14     1
  Processing batch of k-points:     7    15     1
  Processing batch of k-points:     8     1     1
  Processing batch of k-points:     8     2     1
  Processing batch of k-points:     8     3     1
  Processing batch of k-points:     8     4     1
  Processing batch of k-points:     8     5     1
  Processing batch of k-points:     8     6     1
  Processing batch of k-points:     8     7     1
  Processing batch of k-points:     8     8     1
  Processing batch of k-points:     8     9     1
  Processing batch of k-points:     8    10     1
  Processing batch of k-points:     8    11     1
  Processing batch of k-points:     8    12     1
  Processing batch of k-points:     8    13     1
  Processing batch of k-points:     8    14     1
  Processing batch of k-points:     8    15     1
  Processing batch of k-points:     9     1     1
  Processing batch of k-points:     9     2     1
  Processing batch of k-points:     9     3     1
  Processing batch of k-points:     9     4     1
  Processing batch of k-points:     9     5     1
  Processing batch of k-points:     9     6     1
  Processing batch of k-points:     9     7     1
  Processing batch of k-points:     9     8     1
  Processing batch of k-points:     9     9     1
  Processing batch of k-points:     9    10     1
  Processing batch of k-points:     9    11     1
  Processing batch of k-points:     9    12     1
  Processing batch of k-points:     9    13     1
  Processing batch of k-points:     9    14     1
  Processing batch of k-points:     9    15     1
  Processing batch of k-points:    10     1     1
  Processing batch of k-points:    10     2     1
  Processing batch of k-points:    10     3     1
  Processing batch of k-points:    10     4     1
  Processing batch of k-points:    10     5     1
  Processing batch of k-points:    10     6     1
  Processing batch of k-points:    10     7     1
  Processing batch of k-points:    10     8     1
  Processing batch of k-points:    10     9     1
  Processing batch of k-points:    10    10     1
  Processing batch of k-points:    10    11     1
  Processing batch of k-points:    10    12     1
  Processing batch of k-points:    10    13     1
  Processing batch of k-points:    10    14     1
  Processing batch of k-points:    10    15     1
  Processing batch of k-points:    11     1     1
  Processing batch of k-points:    11     2     1
  Processing batch of k-points:    11     3     1
  Processing batch of k-points:    11     4     1
  Processing batch of k-points:    11     5     1
  Processing batch of k-points:    11     6     1
  Processing batch of k-points:    11     7     1
  Processing batch of k-points:    11     8     1
  Processing batch of k-points:    11     9     1
  Processing batch of k-points:    11    10     1
  Processing batch of k-points:    11    11     1
  Processing batch of k-points:    11    12     1
  Processing batch of k-points:    11    13     1
  Processing batch of k-points:    11    14     1
  Processing batch of k-points:    11    15     1
  Processing batch of k-points:    12     1     1
  Processing batch of k-points:    12     2     1
  Processing batch of k-points:    12     3     1
  Processing batch of k-points:    12     4     1
  Processing batch of k-points:    12     5     1
  Processing batch of k-points:    12     6     1
  Processing batch of k-points:    12     7     1
  Processing batch of k-points:    12     8     1
  Processing batch of k-points:    12     9     1
  Processing batch of k-points:    12    10     1
  Processing batch of k-points:    12    11     1
  Processing batch of k-points:    12    12     1
  Processing batch of k-points:    12    13     1
  Processing batch of k-points:    12    14     1
  Processing batch of k-points:    12    15     1
  Processing batch of k-points:    13     1     1
  Processing batch of k-points:    13     2     1
  Processing batch of k-points:    13     3     1
  Processing batch of k-points:    13     4     1
  Processing batch of k-points:    13     5     1
  Processing batch of k-points:    13     6     1
  Processing batch of k-points:    13     7     1
  Processing batch of k-points:    13     8     1
  Processing batch of k-points:    13     9     1
  Processing batch of k-points:    13    10     1
  Processing batch of k-points:    13    11     1
  Processing batch of k-points:    13    12     1
  Processing batch of k-points:    13    13     1
  Processing batch of k-points:    13    14     1
  Processing batch of k-points:    13    15     1
  Processing batch of k-points:    14     1     1
  Processing batch of k-points:    14     2     1
  Processing batch of k-points:    14     3     1
  Processing batch of k-points:    14     4     1
  Processing batch of k-points:    14     5     1
  Processing batch of k-points:    14     6     1
  Processing batch of k-points:    14     7     1
  Processing batch of k-points:    14     8     1
  Processing batch of k-points:    14     9     1
  Processing batch of k-points:    14    10     1
  Processing batch of k-points:    14    11     1
  Processing batch of k-points:    14    12     1
  Processing batch of k-points:    14    13     1
  Processing batch of k-points:    14    14     1
  Processing batch of k-points:    14    15     1
  Processing batch of k-points:    15     1     1
  Processing batch of k-points:    15     2     1
  Processing batch of k-points:    15     3     1
  Processing batch of k-points:    15     4     1
  Processing batch of k-points:    15     5     1
  Processing batch of k-points:    15     6     1
  Processing batch of k-points:    15     7     1
  Processing batch of k-points:    15     8     1
  Processing batch of k-points:    15     9     1
  Processing batch of k-points:    15    10     1
  Processing batch of k-points:    15    11     1
  Processing batch of k-points:    15    12     1
  Processing batch of k-points:    15    13     1
  Processing batch of k-points:    15    14     1
  Processing batch of k-points:    15    15     1
  | writing perturbative DOS (shifted by electron chemical potential) to file KS_dos_total.dat
  | writing perturbative DOS (raw data) to file KS_dos_total_raw.dat

------------------------------------------------------------------------------
  Final output of selected total energy values:

  The following output summarizes some interesting total energy values
  at the end of a run (AFTER all relaxation, molecular dynamics, etc.).

  | Total energy of the DFT / Hartree-Fock s.c.f. calculation      :          -2074.247098146 eV
  | Final zero-broadening corrected energy (caution - metals only) :          -2074.247098146 eV
  | For reference only, the value of 1 Hartree used in FHI-aims is :             27.211384500 eV

  Before relying on these values, please be sure to understand exactly which
  total energy value is referred to by a given number. Different objects may
  all carry the same name 'total energy'. Definitions:

  Total energy of the DFT / Hartree-Fock s.c.f. calculation:
  | Note that this energy does not include ANY quantities calculated after the
  | s.c.f. cycle, in particular not ANY RPA, MP2, etc. many-body perturbation terms.

  Final zero-broadening corrected energy:
  | For metallic systems only, a broadening of the occupation numbers at the Fermi
  | level can be extrapolated back to zero broadening by an electron-gas inspired
  | formula. For all systems that are not real metals, this value can be
  | meaningless and should be avoided.

------------------------------------------------------------------------------

------------------------------------------------------------
          Leaving FHI-aims.
          Date     :  20220221, Time     :  163531.979

          Computational steps:
          | Number of self-consistency cycles          :           15

          Detailed time accounting                     :  max(cpu_time)    wall_clock(cpu1)
          | Total time                                 :      108.313 s         108.727 s
          | Preparation time                           :        0.163 s           0.167 s
          | Grid partitioning                          :        0.056 s           0.056 s
          | Preloading free-atom quantities on grid    :        0.005 s           0.005 s
          | Free-atom superposition energy             :        0.031 s           0.032 s
          | Total time for integrations                :       31.567 s          31.651 s
          | Total time for solution of K.-S. equations :        0.269 s           0.273 s
          | Total time for density update              :       53.667 s          53.776 s
          | Total time for mixing & preconditioning    :        2.929 s           2.936 s
          | Total time for Hartree multipole update    :        0.026 s           0.029 s
          | Total time for Hartree multipole sum       :        4.209 s           4.221 s
          | Total time for total energy evaluation     :        0.003 s           0.011 s
          | Total time for scaled ZORA corrections     :        0.000 s           0.000 s
          | Total time for vdW correction              :        1.284 s           1.287 s

          Have a nice day.
------------------------------------------------------------
