  MPI-parallelism will be employed.
------------------------------------------------------------
          Invoking FHI-aims ...
          Version 052014
          Git rev. (modified): 096c982 Merge branch master of fhiaims:/pub/localo[...]
          Compiled on 2016/12/16 at 15:22:01 on host login02.hpc.iitd.ac.in.

          When using FHI-aims, please cite the following reference:

          Volker Blum, Ralf Gehrke, Felix Hanke, Paula Havu,
          Ville Havu, Xinguo Ren, Karsten Reuter, and Matthias Scheffler,
          'Ab Initio Molecular Simulations with Numeric Atom-Centered Orbitals: FHI-aims',
          Computer Physics Communications 180, 2175-2196 (2009)

          For any questions about FHI-aims, please visit the aimsclub website
          with its forums and wiki. Contributions to both the forums and the
          wiki are warmly encouraged - they are for you, and everyone is welcome there.

------------------------------------------------------------

  Date     :  20220120, Time     :  153918.453
  Time zero on CPU 1             :   0.114960000000000E-01  s.
  Internal wall clock time zero  :           411925158.453  s.

  Using        8 parallel tasks.
  Task        0 on host csky019 reporting.
  Task        1 on host csky019 reporting.
  Task        2 on host csky019 reporting.
  Task        3 on host csky019 reporting.
  Task        4 on host csky019 reporting.
  Task        5 on host csky019 reporting.
  Task        6 on host csky019 reporting.
  Task        7 on host csky019 reporting.

  Performing system and environment tests:
  | Environment variable OMP_NUM_THREADS correctly set to 1.
  | Stacksize not measured: no C compiler
  | Checking for scalapack...
  | Testing pdtran()...
  | All pdtran() tests passed.

  Obtaining array dimensions for all initial allocations:
  
  -----------------------------------------------------------------------
  Parsing control.in (first pass over file, find array dimensions only).
  The contents of control.in will be repeated verbatim below
  unless switched off by setting 'verbatim_writeout .false.' .
  in the first line of control.in .
  -----------------------------------------------------------------------
  
    xc               pbe
    spin             collinear
    default_initial_moment hund
    relativistic     atomic_zora scalar 1e-9
    occupation_type  gaussian 0.001
    charge        0
    vdw_correction_hirshfeld
    KS_method        scalapack_fast
    mixer            pulay
    charge_mix_param  0.4
    spin_mix_param    0.6
    sc_accuracy_rho  1E-4
    sc_accuracy_eev  1E-5
    sc_accuracy_etot 1E-5
    sc_iter_limit    100
    empty_states     10
  ################################################################################
  #
  #  FHI-aims code project
  # Volker Blum, Fritz Haber Institute Berlin, 2009
  #
  #  Suggested "tight" defaults for H atom (to be pasted into control.in file)
  #
  ################################################################################
    species        H
  #     global species definitions
      nucleus             1
      mass                1.00794
  #
      l_hartree           6
  #
      cut_pot             4.0  2.0  1.0
      basis_dep_cutoff    1e-4
  #
      radial_base         24 7.0
      radial_multiplier   2
      angular_grids       specified
        division   0.1930   50
        division   0.3175  110
        division   0.4293  194
        division   0.5066  302
        division   0.5626  434
  #      division   0.5922  590
  #      division   0.6227  974
  #      division   0.6868 1202
  #      outer_grid  770
        outer_grid  434
  ################################################################################
  #
  #  Definition of "minimal" basis
  #
  ################################################################################
  #     valence basis states
      valence      1  s   1.
  #     ion occupancy
      ion_occ      1  s   0.5
  ################################################################################
  #
  #  Suggested additional basis functions. For production calculations,
  #  uncomment them one after another (the most important basis functions are
  #  listed first).
  #
  #  Basis constructed for dimers: 0.5 A, 0.7 A, 1.0 A, 1.5 A, 2.5 A
  #
  ################################################################################
  #  "First tier" - improvements: -1014.90 meV to -62.69 meV
       hydro 2 s 2.1
       hydro 2 p 3.5
  #  "Second tier" - improvements: -12.89 meV to -1.83 meV
       hydro 1 s 0.85
       hydro 2 p 3.7
       hydro 2 s 1.2
       hydro 3 d 7
  #  "Third tier" - improvements: -0.25 meV to -0.12 meV
  #     hydro 4 f 11.2
  #     hydro 3 p 4.8
  #     hydro 4 d 9
  #     hydro 3 s 3.2
  ################################################################################
  #
  # For methods that use the localized form of the "resolution of identity" for
  # the two-electron Coulomb operator (RI_method LVL), particularly Hartree-Fock and
  # hybrid density functional calculations, the highest accuracy can be obtained by
  # uncommenting the line beginning with "for_aux"  below, thus adding an extra g radial
  # function to the construction of the product basis set for the expansion.
  # See Ref. New J. Phys. 17, 093020 (2015) for more information, particularly Figs. 1 and 6.
  #
  ################################################################################
  #
  # for_aux hydro 5 g 6.0
  
  -----------------------------------------------------------------------
  Completed first pass over input file control.in .
  -----------------------------------------------------------------------
  
  
  -----------------------------------------------------------------------
  Parsing geometry.in (first pass over file, find array dimensions only).
  The contents of geometry.in will be repeated verbatim below
  unless switched off by setting 'verbatim_writeout .false.' .
  in the first line of geometry.in .
  -----------------------------------------------------------------------
  
  atom 0 0 0 H
  atom 0 0 0.58 H
  
  -----------------------------------------------------------------------
  Completed first pass over input file geometry.in .
  -----------------------------------------------------------------------
  

  Basic array size parameters:
  | Number of species                 :        1
  | Number of atoms                   :        2
  | Max. basis fn. angular momentum   :        2
  | Max. atomic/ionic basis occupied n:        1
  | Max. number of basis fn. types    :        2
  | Max. radial fns per species/type  :        6
  | Max. logarithmic grid size        :     1131
  | Max. radial integration grid size :       49
  | Max. angular integration grid size:      434
  | Max. angular grid division number :        8
  | Radial grid for Hartree potential :     1131
  | Number of spin channels           :        2

------------------------------------------------------------
          Reading file control.in.
------------------------------------------------------------
  XC: Using PBE gradient-corrected functionals.
  Spin treatment: Spin density functional theory - collinear spins.
  Initial spin moment per atom set according to Hund's rules.
  Scalar relativistic treatment of kinetic energy: on-site free-atom approximation to ZORA.
  Occupation type: Gaussian broadening, width =   0.100000E-02 eV.
  Charge =   0.000000E+00: Neutral system requested explicitly.
  Using non-empirical van der Waals correction (Hirshfeld partitioning):
  Kohn-Sham eigenvalues and eigenfunctions calculated by the ELPA eigensolver library.
  Using pulay charge density mixing.
  Charge density mixing - mixing parameter:     0.4000
  Spin density mixing - mixing parameter:     0.6000
  Convergence accuracy of self-consistent charge density: 0.1000E-03
  Convergence accuracy of sum of eigenvalues: 0.1000E-04
  Convergence accuracy of total energy: 0.1000E-04
  Maximum number of s.-c. iterations  :   100
  Number of empty states per atom:       10
 
  Reading configuration options for species H                   .
  | Found nuclear charge :   1.0000
  | Found atomic mass :    1.00794000000000      amu
  | Found l_max for Hartree potential  :   6
  | Found cutoff potl. onset [A], width [A], scale factor :    4.00000    2.00000    1.00000
  | Threshold for basis-dependent cutoff potential is   0.100000E-03
  | Found data for basic radial integration grid :    24 points, outermost radius =    7.000 A
  | Found multiplier for basic radial grid :   2
  | Found angular grid specification: user-specified.
  | Specified grid contains     6 separate shells.
  | Check grid settings after all constraints further below.
  | Found free-atom valence shell :  1 s   1.000
  | No ionic wave fns used. Skipping ion_occ.
  | Found hydrogenic basis function :  2 s   2.100
  | Found hydrogenic basis function :  2 p   3.500
  | Found hydrogenic basis function :  1 s   0.850
  | Found hydrogenic basis function :  2 p   3.700
  | Found hydrogenic basis function :  2 s   1.200
  | Found hydrogenic basis function :  3 d   7.000
  Species H                   : Missing cutoff potential type.
  Defaulting to exp(1/x)/(1-x)^2 type cutoff potential.
  Species H : No 'logarithmic' tag. Using default grid for free atom:
  | Default logarithmic grid data [bohr] : 0.1000E-03 0.1000E+03 0.1012E+01
  Species H : On-site basis accuracy parameter (for Gram-Schmidt orthonormalisation) not specified.
  Using default value basis_acc =  0.1000000E-03.
  Species H                   : Using default innermost maximum threshold i_radial=  2 for radial functions.
  Species H                   : Default cutoff onset for free atom density etc. : 0.40000000E+01 AA.
  Species H                   : Basic radial grid will be enhanced according to radial_multiplier =   2, to contain    49 grid points.
 
  Finished reading input file 'control.in'. Consistency checks are next.
 
  Target number of points in a grid batch is not set. Defaulting to  100
  Method for grid partitioning is not set. Defaulting to parallel hash+maxmin partitioning.
  Batch size limit is not set. Defaulting to    200
  By default, will store active basis functions for each batch.
  If in need of memory, prune_basis_once .false. can be used to disable this option.
  communication_type for Hartree potential was not specified.
  Defaulting to calc_hartree .
  Pulay mixer: Number of relevant iterations not set.
  Defaulting to    8 iterations.
  Pulay mixer: Number of initial linear mixing iterations not set.
  Defaulting to    0 iterations.
  Work space size for distributed Hartree potential not set.
  Defaulting to   0.200000E+03 MB.
  Algorithm-dependent basis array size parameters:
  | n_max_pulay                         :        8
  Calculation of forces was not defined in control.in. No forces will be calculated.
  Geometry relaxation not requested: no relaxation will be performed.
  No accuracy limit for integral partition fn. given. Defaulting to 0.1000E-14.
  No threshold value for u(r) in integrations given. Defaulting to 0.1000E-05.
  No accuracy for occupation numbers given. Defaulting to 0.1000E-07.
  No threshold value for occupation numbers given. Defaulting to 0.0000E+00.
  No accuracy for fermi level given. Defaulting to 0.1000E-19.
  Maximum # of iterations to find E_F not set. Defaulting to  200.
  Will not use alltoall communication since running on < 1024 CPUs.
  Threshold for basis singularities not set.
  Default threshold for basis singularities: 0.1000E-04
  partition_type (choice of integration weights) for integrals was not specified.
  | Using a version of the partition function of Stratmann and coworkers ('stratmann_smoother').
  | At each grid point, the set of atoms used to build the partition table is smoothly restricted to
  | only those atoms whose free-atom density would be non-zero at that grid point.
  Partitioning for Hartree potential was not defined. Using partition_type for integrals.
  | Adjusted default value of keyword multip_moments_threshold to:       0.10000000E-11
  | This value may affect high angular momentum components of the Hartree potential in periodic systems.
  No q(lm)/r^(l+1) cutoff set for long-range Hartree potential.
  | Using default value of  0.100000E-09 .
  | Verify using the multipole_threshold keyword.
  Defaulting to new monopole extrapolation.
  Density update method: automatic selection selected.
------------------------------------------------------------


------------------------------------------------------------
          Reading geometry description geometry.in.
------------------------------------------------------------
  Input structure read successfully.
  The structure contains        2 atoms,  and a total of          2.000 electrons.

  Input geometry:
  | No unit cell requested.
  | Atomic structure:
  |       Atom                x [A]            y [A]            z [A]
  |    1: Species H              0.000000         0.000000         0.000000
  |    2: Species H              0.000000         0.000000         0.580000
  |

  | The smallest distance between any two atoms is         0.58000000 AA.
  |
  | The first atom of this pair is atom number                      1 .
  | The second atom of this pair is atom number                     2 .

  Initial moments and charges:
  |  Atom   Moment         Charge        Species
  |     1  (Hund's rule)   0.000000E+00   H
  |     2  (Hund's rule)   0.000000E+00   H

  Structure-dependent array size parameters: 
  | Number of distinct atom types in initial rho :        1
  | Maximum number of distinct radial functions  :        7
  | Maximum number of basis functions            :       30
  | Number of Kohn-Sham states (occupied + empty):       11
------------------------------------------------------------

------------------------------------------------------------
          Preparing all fixed parts of the calculation.
------------------------------------------------------------
  Determining machine precision:
    2.225073858507201E-308
  Setting up grids for atomic and cluster calculations.

  Creating wave function, potential, and density for free atoms.

  Species: H

  List of occupied orbitals and eigenvalues:
    n    l              occ      energy [Ha]    energy [eV]
    1    0           1.0000        -0.238386        -6.4868

  Spin-polarized or charged system:
  Charge density initialized according to selected moments and charges.

  Creating spin-polarized density from free atoms.

  Species: H
  Charge:   0.000000
  applying Hund's rules ...

  List of occupied orbitals and eigenvalues:
    n    l      energy [Ha]    energy [eV]    occupation
  Spin-up
    1    0        -0.278991        -7.5917     1.00000000
  Spin-down
    1    0         0.090850         2.4721     0.00000000

  Creating fixed part of basis set: Ionic, confined, hydrogenic.
 
  H                    hydrogenic:
 
  List of hydrogenic basis orbitals: 
    n    l      effective z      eigenvalue [eV]  inner max. [A]     outer max. [A]     outer radius [A]   
    2    0         2.100000       -14.9965           0.193243           1.317208           5.373006
    2    1         3.500000       -41.6672           0.602369           0.602369           4.056063
    1    0         0.850000        -9.8292           0.624871           0.624871           5.373006
    2    1         3.700000       -46.5653           0.573622           0.573622           3.910002
    2    0         1.200000        -4.5995           0.334980           2.228188           5.505995
    3    2         7.000000       -74.0753           0.680699           0.680699           3.769201
 

  Adding cutoff potential to free-atom effective potential.
  Creating atomic-like basis functions for current effective potential.

  Species H                   :

  List of atomic basis orbitals and eigenvalues:
    n    l      energy [Ha]    energy [eV]    outer radius [A]
    1    0        -0.238386        -6.4868       5.373006

  Assembling full basis from fixed parts.
  | Species H :   atomic orbital   1 s accepted.
  | Species H :    hydro orbital   2 s accepted.
  | Species H :    hydro orbital   1 s accepted.
  | Species H :    hydro orbital   2 s accepted.
  | Species H :    hydro orbital   2 p accepted.
  | Species H :    hydro orbital   2 p accepted.
  | Species H :    hydro orbital   3 d accepted.
 
  Basis size parameters after reduction:
  | Total number of radial functions:        7
  | Total number of basis functions :       30
 
  Testing on-site integration grid accuracy.
  |  Species  Function  <phi|h_atom|phi> (log., in eV)  <phi|h_atom|phi> (rad., in eV)
           1        1                 -6.4870767962                 -6.4871688290
           1        2                 13.5032046589                 13.5028982997
           1        3                 32.8195184817                 32.8119941656
           1        4                 33.8513856511                 33.7670005767 ***
           1        5                 28.8544614965                 28.8544615203
           1        6                 59.6326952547                 59.6327656460
           1        7                 60.2719308513                 60.2719305949
 * Note: Onsite integrals marked "***" above are less accurate than
 * onsite_accuracy_threshold =    0.03000 eV. Usually, this is harmless.
 * When in doubt, tighten the "radial" and/or "radial_multiplier" flags to check.

  Preparing densities etc. for the partition functions (integrals / Hartree potential).

  Preparations completed.
  max(cpu_time)          :      0.076 s.
  Wall clock time (cpu1) :      0.079 s.
------------------------------------------------------------

------------------------------------------------------------
          Begin self-consistency loop: Initialization.

          Date     :  20220120, Time     :  153918.630
------------------------------------------------------------

  Initializing index lists of integration centers etc. from given atomic structure:
  | Number of centers in hartree potential         :         2
  | Number of centers in hartree multipole         :         2
  | Number of centers in electron density summation:         2
  | Number of centers in basis integrals           :         2
  | Number of centers in integrals                 :         2
  Using modified Scalapack Eigenvalue solver (ELPA)
  * Using 8 tasks for Scalapack Eigenvalue solver.
  Detailed listing of tasks and assigned k-points:
  (for non-periodic systems, the "k-point" denotes an internal label only)
   Task     0 k-point     1 on csky019
   Task     1 k-point     1 on csky019
   Task     2 k-point     1 on csky019
   Task     3 k-point     1 on csky019
   Task     4 k-point     1 on csky019
   Task     5 k-point     1 on csky019
   Task     6 k-point     1 on csky019
   Task     7 k-point     1 on csky019
  Tasks:     8 split into      4 X      2 BLACS grid
  Calculating blocksize based on n_basis =           30 max_nprow =            4 max_npcol =            2
  Scalapack blocksize set to:            4
  Required Scalapack workspace - INTEGER:            1 REAL:             1
  Partitioning the integration grid into batches with parallel hashing+maxmin method.
  | Number of batches:      447
  | Maximal batch size:     197
  | Minimal batch size:      49
  | Average batch size:      64.653
  | Standard deviation of batch sizes:      18.153

  Integration load balanced across     8 MPI tasks.
  Work distribution over tasks is as follows:
  Task     0 has       3629 integration points.
  Task     1 has       3676 integration points.
  Task     2 has       3659 integration points.
  Task     3 has       3579 integration points.
  Task     4 has       3585 integration points.
  Task     5 has       3588 integration points.
  Task     6 has       3596 integration points.
  Task     7 has       3588 integration points.
  Initializing partition tables, free-atom densities, potentials, etc. across the integration grid (initialize_grid_storage).
  | initialize_grid_storage: Actual outermost partition radius vs. multipole_radius_free
  | (-- VB: in principle, multipole_radius_free should be larger, hence this output)
  | Species        1: outer_partition_radius =              6.000000000000000 AA, multipole_radius_free =              6.071692442739658 AA.
  | Original list of interatomic distances with           2 x          2 entries is created.
  | Net number of integration points:    28900
  | of which are non-zero points    :    26166
  Obtaining max. number of non-zero basis functions in each batch (get_n_compute_maxes).
  | Maximal number of non-zero basis functions:       30 in task     0
  | Maximal number of non-zero basis functions:       30 in task     1
  | Maximal number of non-zero basis functions:       30 in task     2
  | Maximal number of non-zero basis functions:       30 in task     3
  | Maximal number of non-zero basis functions:       30 in task     4
  | Maximal number of non-zero basis functions:       30 in task     5
  | Maximal number of non-zero basis functions:       30 in task     6
  | Maximal number of non-zero basis functions:       30 in task     7
  Selecting the method for density update.
  Loop over occupied states selected for charge density update.
  Integrating Hamiltonian matrix: batch-based integration.
  Time summed over all CPUs for integration: real work        0.082 s, elapsed        0.088 s
  Integrating overlap matrix.
  Time summed over all CPUs for integration: real work        0.020 s, elapsed        0.022 s
  Deallocating overlap matrix.

  Updating Kohn-Sham eigenvalues, eigenvectors, occupation numbers, and Fermi level.
  Solving generalized eigenproblem
  Solving real symmetric generalised eigenvalue problem by standard ScaLAPACK.
  Transforming overlap matrix with ScaLAPACK and checking for singularities.
  : Overlap matrix is nonsingular, using Cholesky decomposition
  | Lowest eigenvalue:  0.103930E-03
  Factoring overlap matrix with Cholesky decomposition
  Using Cholesky factor for transformation
  Using 1-stage real ELPA solver
  Solving real symmetric generalised eigenvalue problem by standard ScaLAPACK.
  Using Cholesky factor for transformation
  Using 1-stage real ELPA solver
  Determining occupation numbers for Kohn-Sham eigenstates.
  | Chemical potential (Fermi level) in eV                 : -.66616354E+00
  | Error in electron count due to remaining E_F inaccuracy: 0.00000000E+00
  | Maximum occupation number of highest empty state:  0.00E+00

  Writing Kohn-Sham eigenvalues.

  Spin-up eigenvalues:

  State    Occupation    Eigenvalue [Ha]    Eigenvalue [eV]
      1       1.00000          -0.677018          -18.42260
      2       1.00000          -0.025560           -0.69552
      3       0.00000           0.002233            0.06075
      4       0.00000           0.124530            3.38862
      5       0.00000           0.205409            5.58946
      6       0.00000           0.205409            5.58946
      7       0.00000           0.279334            7.60106
      8       0.00000           0.506846           13.79199
      9       0.00000           0.691116           18.80623
     10       0.00000           0.691116           18.80623
     11       0.00000           0.697220           18.97233

  Spin-down eigenvalues:

  State    Occupation    Eigenvalue [Ha]    Eigenvalue [eV]
      1       0.00000           0.099176            2.69871
      2       0.00000           0.114706            3.12132
      3       0.00000           0.503179           13.69220
      4       0.00000           0.530581           14.43785
      5       0.00000           1.172278           31.89930
      6       0.00000           1.173045           31.92017
      7       0.00000           1.173045           31.92017
      8       0.00000           1.498376           40.77287
      9       0.00000           1.498376           40.77287
     10       0.00000           1.571608           42.76562
     11       0.00000           1.657597           45.10552

  Current spin moment of the entire structure :
  | N = N_up - N_down :    2.00
  | S                 :    1.00
  | J                 :    3.00

  Highest occupied state (VBM) at     -0.69551724 eV
  | Occupation number:      1.00000000
  | Spin channel:        1

  Lowest unoccupied state (CBM) at     0.06075415 eV
  | Occupation number:      0.00000000
  | Spin channel:        1

  Overall HOMO-LUMO gap:      0.75627140 eV.
  Calculating total energy contributions from superposition of free atom densities.

  Total energy components:
  | Sum of eigenvalues            :          -0.70257794 Ha         -19.11811845 eV
  | XC energy correction          :          -0.70355618 Ha         -19.14473770 eV
  | XC potential correction       :           0.90824956 Ha          24.71472808 eV
  | Free-atom electrostatic energy:          -0.17800531 Ha          -4.84377085 eV
  | Hartree energy correction     :           0.00000000 Ha           0.00000000 eV
  | van der Waals energy corr.    :           0.00000000 Ha           0.00000000 eV
  | Entropy correction            :           0.00000000 Ha           0.00000000 eV
  | ---------------------------
  | Total energy                  :          -0.67588986 Ha         -18.39189891 eV
  | Total energy, T -> 0          :          -0.67588986 Ha         -18.39189891 eV  <-- do not rely on this value for anything but (periodic) metals
  | Electronic free energy        :          -0.67588986 Ha         -18.39189891 eV

  Derived energy quantities:
  | Kinetic energy                :           1.25623503 Ha          34.18389447 eV
  | Electrostatic energy          :          -1.22856871 Ha         -33.43105569 eV
  | Energy correction for multipole
  | error in Hartree potential    :           0.00000000 Ha           0.00000000 eV
  | Sum of eigenvalues per atom                           :          -9.55905922 eV
  | Total energy (T->0) per atom                          :          -9.19594945 eV  <-- do not rely on this value for anything but (periodic) metals
  | Electronic free energy per atom                       :          -9.19594945 eV
  Initialize hartree_potential_storage
  Max. number of atoms included in rho_multipole:            2

  End scf initialization - timings             :  max(cpu_time)    wall_clock(cpu1)
  | Time for scf. initialization               :        0.040 s           0.040 s
  | Boundary condition initialization          :        0.000 s           0.000 s
  | Integration                                :        0.014 s           0.014 s
  | Solution of K.-S. eqns.                    :        0.007 s           0.007 s
  | Grid partitioning                          :        0.007 s           0.007 s
  | Preloading free-atom quantities on grid    :        0.004 s           0.003 s
  | Free-atom superposition energy             :        0.003 s           0.003 s
  | Total energy evaluation                    :        0.000 s           0.000 s
------------------------------------------------------------

------------------------------------------------------------
          Begin self-consistency iteration #    1

  Date     :  20220120, Time     :  153918.671
------------------------------------------------------------
  Evaluating new KS density.
  Integration grid: deviation in total charge (<rho> - N_e) =   3.634663E-07
  | <rho_up-rho_dn> = N_up-N_dn =      2.0000; <|rho_up-rho_dn|> =      2.1695
  Pulay mixing of updated and previous charge densities.

  Evaluating partitioned Hartree potential by multipole expansion.
  | Analytical far-field extrapolation by fixed multipoles:
  | Hartree multipole sum: apparent total charge =  -0.126080E-04
  Summing up the Hartree potential.
  Time summed over all CPUs for potential: real work        0.035 s, elapsed        0.037 s
  | RMS charge density error from multipole expansion :   0.835287E-03

  Integrating Hamiltonian matrix: batch-based integration.
  Time summed over all CPUs for integration: real work        0.067 s, elapsed        0.073 s

  Updating Kohn-Sham eigenvalues, eigenvectors, occupation numbers, and Fermi level.
  Solving generalized eigenproblem
  Solving real symmetric generalised eigenvalue problem by standard ScaLAPACK.
  Using Cholesky factor for transformation
  Using 1-stage real ELPA solver
  Solving real symmetric generalised eigenvalue problem by standard ScaLAPACK.
  Using Cholesky factor for transformation
  Using 1-stage real ELPA solver
  Determining occupation numbers for Kohn-Sham eigenstates.
  | Chemical potential (Fermi level) in eV                 : -.68014921E+01
  | Error in electron count due to remaining E_F inaccuracy: 0.00000000E+00
  | Maximum occupation number of highest empty state:  0.00E+00

  Writing Kohn-Sham eigenvalues.

  Spin-up eigenvalues:

  State    Occupation    Eigenvalue [Ha]    Eigenvalue [eV]
      1       1.00000          -0.546507          -14.87122
      2       0.00000           0.063349            1.72380
      3       0.00000           0.064077            1.74362
      4       0.00000           0.178182            4.84857
      5       0.00000           0.224991            6.12231
      6       0.00000           0.224991            6.12231
      7       0.00000           0.344131            9.36429
      8       0.00000           0.577493           15.71439
      9       0.00000           0.750988           20.43542
     10       0.00000           0.750988           20.43542
     11       0.00000           0.815771           22.19827

  Spin-down eigenvalues:

  State    Occupation    Eigenvalue [Ha]    Eigenvalue [eV]
      1       1.00000          -0.336151           -9.14714
      2       0.00000           0.081308            2.21252
      3       0.00000           0.089235            2.42821
      4       0.00000           0.246593            6.71012
      5       0.00000           0.334917            9.11357
      6       0.00000           0.334917            9.11357
      7       0.00000           0.400592           10.90067
      8       0.00000           0.694994           18.91175
      9       0.00000           0.837308           22.78431
     10       0.00000           0.837308           22.78431
     11       0.00000           0.883944           24.05335

  Current spin moment of the entire structure :
  | N = N_up - N_down :    0.00
  | S                 :    0.00
  | J                 :    1.00

  Highest occupied state (VBM) at     -9.14713960 eV
  | Occupation number:      1.00000000
  | Spin channel:        2

  Lowest unoccupied state (CBM) at     1.72380107 eV
  | Occupation number:      0.00000000
  | Spin channel:        1

  Overall HOMO-LUMO gap:     10.87094067 eV.

  Total energy components:
  | Sum of eigenvalues            :          -0.88265847 Ha         -24.01835904 eV
  | XC energy correction          :          -0.47405096 Ha         -12.89958302 eV
  | XC potential correction       :           0.60948204 Ha          16.58485014 eV
  | Free-atom electrostatic energy:          -0.17800531 Ha          -4.84377085 eV
  | Hartree energy correction     :           0.03953812 Ha           1.07588707 eV
  | van der Waals energy corr.    :           0.00000000 Ha           0.00000000 eV
  | Entropy correction            :           0.00000000 Ha           0.00000000 eV
  | ---------------------------
  | Total energy                  :          -0.88569458 Ha         -24.10097568 eV
  | Total energy, T -> 0          :          -0.88569458 Ha         -24.10097568 eV  <-- do not rely on this value for anything but (periodic) metals
  | Electronic free energy        :          -0.88569458 Ha         -24.10097568 eV

  Derived energy quantities:
  | Kinetic energy                :           0.87235382 Ha          23.73795509 eV
  | Electrostatic energy          :          -1.28399743 Ha         -34.93934776 eV
  | Energy correction for multipole
  | error in Hartree potential    :          -0.00013568 Ha          -0.00369195 eV
  | Sum of eigenvalues per atom                           :         -12.00917952 eV
  | Total energy (T->0) per atom                          :         -12.05048784 eV  <-- do not rely on this value for anything but (periodic) metals
  | Electronic free energy per atom                       :         -12.05048784 eV

  Self-consistency convergence accuracy:
  | Change of charge/spin density : 0.7220E-01 0.7220E-01
  | Change of sum of eigenvalues  : -.4900E+01 eV
  | Change of total energy        : -.5709E+01 eV

  End self-consistency iteration #     1       :  max(cpu_time)    wall_clock(cpu1)
  | Time for this iteration                    :        0.027 s           0.027 s
  | Charge density update                      :        0.006 s           0.006 s
  | Density mixing                             :        0.001 s           0.001 s
  | Hartree multipole update                   :        0.001 s           0.001 s
  | Hartree multipole summation                :        0.005 s           0.006 s
  | Integration                                :        0.009 s           0.009 s
  | Solution of K.-S. eqns.                    :        0.001 s           0.002 s
  | Total energy evaluation                    :        0.000 s           0.001 s
------------------------------------------------------------

------------------------------------------------------------
          Begin self-consistency iteration #    2

  Date     :  20220120, Time     :  153918.700
------------------------------------------------------------
  Evaluating new KS density.
  Integration grid: deviation in total charge (<rho> - N_e) =   2.180798E-07
  | <rho_up-rho_dn> = N_up-N_dn =     -2.0000; <|rho_up-rho_dn|> =      2.0000
  Pulay mixing of updated and previous charge densities.

  Evaluating partitioned Hartree potential by multipole expansion.
  | Analytical far-field extrapolation by fixed multipoles:
  | Hartree multipole sum: apparent total charge =  -0.123447E-04
  Summing up the Hartree potential.
  Time summed over all CPUs for potential: real work        0.032 s, elapsed        0.034 s
  | RMS charge density error from multipole expansion :   0.813579E-03

  Integrating Hamiltonian matrix: batch-based integration.
  Time summed over all CPUs for integration: real work        0.066 s, elapsed        0.069 s

  Updating Kohn-Sham eigenvalues, eigenvectors, occupation numbers, and Fermi level.
  Solving generalized eigenproblem
  Solving real symmetric generalised eigenvalue problem by standard ScaLAPACK.
  Using Cholesky factor for transformation
  Using 1-stage real ELPA solver
  Solving real symmetric generalised eigenvalue problem by standard ScaLAPACK.
  Using Cholesky factor for transformation
  Using 1-stage real ELPA solver
  Determining occupation numbers for Kohn-Sham eigenstates.
  | Chemical potential (Fermi level) in eV                 : -.96038182E+01
  | Error in electron count due to remaining E_F inaccuracy: 0.00000000E+00
  | Maximum occupation number of highest empty state:  0.00E+00

  Current spin moment of the entire structure :
  | N = N_up - N_down :    0.00
  | S                 :    0.00
  | J                 :    1.00

  Highest occupied state (VBM) at    -11.04272241 eV
  | Occupation number:      1.00000000
  | Spin channel:        2

  Lowest unoccupied state (CBM) at     1.33174069 eV
  | Occupation number:      0.00000000
  | Spin channel:        1

  Overall HOMO-LUMO gap:     12.37446310 eV.

  Total energy components:
  | Sum of eigenvalues            :          -1.07719518 Ha         -29.31197233 eV
  | XC energy correction          :          -0.59241508 Ha         -16.12043458 eV
  | XC potential correction       :           0.76470340 Ha          20.80863821 eV
  | Free-atom electrostatic energy:          -0.17800531 Ha          -4.84377085 eV
  | Hartree energy correction     :           0.03344580 Ha           0.91010656 eV
  | van der Waals energy corr.    :           0.00000000 Ha           0.00000000 eV
  | Entropy correction            :           0.00000000 Ha           0.00000000 eV
  | ---------------------------
  | Total energy                  :          -1.04946637 Ha         -28.55743298 eV
  | Total energy, T -> 0          :          -1.04946637 Ha         -28.55743298 eV  <-- do not rely on this value for anything but (periodic) metals
  | Electronic free energy        :          -1.04946637 Ha         -28.55743298 eV

  Derived energy quantities:
  | Kinetic energy                :           0.83476998 Ha          22.71524691 eV
  | Electrostatic energy          :          -1.29182127 Ha         -35.15224531 eV
  | Energy correction for multipole
  | error in Hartree potential    :          -0.00013041 Ha          -0.00354875 eV
  | Sum of eigenvalues per atom                           :         -14.65598616 eV
  | Total energy (T->0) per atom                          :         -14.27871649 eV  <-- do not rely on this value for anything but (periodic) metals
  | Electronic free energy per atom                       :         -14.27871649 eV

  Self-consistency convergence accuracy:
  | Change of charge/spin density : 0.1317E+00 0.3022E+00
  | Change of sum of eigenvalues  : -.5294E+01 eV
  | Change of total energy        : -.4456E+01 eV

  End self-consistency iteration #     2       :  max(cpu_time)    wall_clock(cpu1)
  | Time for this iteration                    :        0.024 s           0.024 s
  | Charge density update                      :        0.006 s           0.006 s
  | Density mixing                             :        0.001 s           0.001 s
  | Hartree multipole update                   :        0.001 s           0.001 s
  | Hartree multipole summation                :        0.004 s           0.005 s
  | Integration                                :        0.009 s           0.008 s
  | Solution of K.-S. eqns.                    :        0.001 s           0.002 s
  | Total energy evaluation                    :        0.000 s           0.001 s
------------------------------------------------------------

------------------------------------------------------------
          Begin self-consistency iteration #    3

  Date     :  20220120, Time     :  153918.729
------------------------------------------------------------
  Evaluating new KS density.
  Integration grid: deviation in total charge (<rho> - N_e) =   2.137050E-07
  | <rho_up-rho_dn> = N_up-N_dn =     -1.9398; <|rho_up-rho_dn|> =      1.9398
  Pulay mixing of updated and previous charge densities.

  Evaluating partitioned Hartree potential by multipole expansion.
  | Analytical far-field extrapolation by fixed multipoles:
  | Hartree multipole sum: apparent total charge =  -0.124816E-04
  Summing up the Hartree potential.
  Time summed over all CPUs for potential: real work        0.032 s, elapsed        0.034 s
  | RMS charge density error from multipole expansion :   0.758943E-03

  Integrating Hamiltonian matrix: batch-based integration.
  Time summed over all CPUs for integration: real work        0.066 s, elapsed        0.070 s

  Updating Kohn-Sham eigenvalues, eigenvectors, occupation numbers, and Fermi level.
  Solving generalized eigenproblem
  Solving real symmetric generalised eigenvalue problem by standard ScaLAPACK.
  Using Cholesky factor for transformation
  Using 1-stage real ELPA solver
  Solving real symmetric generalised eigenvalue problem by standard ScaLAPACK.
  Using Cholesky factor for transformation
  Using 1-stage real ELPA solver
  Determining occupation numbers for Kohn-Sham eigenstates.
  | Chemical potential (Fermi level) in eV                 : -.83071116E+01
  | Error in electron count due to remaining E_F inaccuracy: 0.00000000E+00
  | Maximum occupation number of highest empty state:  0.00E+00

  Current spin moment of the entire structure :
  | N = N_up - N_down :    0.00
  | S                 :    0.00
  | J                 :    1.00

  Highest occupied state (VBM) at    -10.24843090 eV
  | Occupation number:      1.00000000
  | Spin channel:        2

  Lowest unoccupied state (CBM) at     1.30945129 eV
  | Occupation number:      0.00000000
  | Spin channel:        1

  Overall HOMO-LUMO gap:     11.55788219 eV.

  Total energy components:
  | Sum of eigenvalues            :          -0.98762014 Ha         -26.87451136 eV
  | XC energy correction          :          -0.53882693 Ha         -14.66222681 eV
  | XC potential correction       :           0.69419143 Ha          18.88990982 eV
  | Free-atom electrostatic energy:          -0.17800531 Ha          -4.84377085 eV
  | Hartree energy correction     :           0.04293225 Ha           1.16824597 eV
  | van der Waals energy corr.    :           0.00000000 Ha           0.00000000 eV
  | Entropy correction            :           0.00000000 Ha           0.00000000 eV
  | ---------------------------
  | Total energy                  :          -0.96732870 Ha         -26.32235323 eV
  | Total energy, T -> 0          :          -0.96732870 Ha         -26.32235323 eV  <-- do not rely on this value for anything but (periodic) metals
  | Electronic free energy        :          -0.96732870 Ha         -26.32235323 eV

  Derived energy quantities:
  | Kinetic energy                :           0.84016844 Ha          22.86214655 eV
  | Electrostatic energy          :          -1.26867021 Ha         -34.52227297 eV
  | Energy correction for multipole
  | error in Hartree potential    :          -0.00011901 Ha          -0.00323834 eV
  | Sum of eigenvalues per atom                           :         -13.43725568 eV
  | Total energy (T->0) per atom                          :         -13.16117662 eV  <-- do not rely on this value for anything but (periodic) metals
  | Electronic free energy per atom                       :         -13.16117662 eV

  Self-consistency convergence accuracy:
  | Change of charge/spin density : 0.2047E+00 0.2783E+00
  | Change of sum of eigenvalues  : 0.2437E+01 eV
  | Change of total energy        : 0.2235E+01 eV

  End self-consistency iteration #     3       :  max(cpu_time)    wall_clock(cpu1)
  | Time for this iteration                    :        0.025 s           0.024 s
  | Charge density update                      :        0.007 s           0.006 s
  | Density mixing                             :        0.001 s           0.001 s
  | Hartree multipole update                   :        0.001 s           0.002 s
  | Hartree multipole summation                :        0.004 s           0.004 s
  | Integration                                :        0.009 s           0.009 s
  | Solution of K.-S. eqns.                    :        0.001 s           0.001 s
  | Total energy evaluation                    :        0.000 s           0.000 s
------------------------------------------------------------

------------------------------------------------------------
          Begin self-consistency iteration #    4

  Date     :  20220120, Time     :  153918.758
------------------------------------------------------------
  Evaluating new KS density.
  Integration grid: deviation in total charge (<rho> - N_e) =   2.144293E-07
  | <rho_up-rho_dn> = N_up-N_dn =     -1.9470; <|rho_up-rho_dn|> =      1.9470
  Pulay mixing of updated and previous charge densities.

  Evaluating partitioned Hartree potential by multipole expansion.
  | Analytical far-field extrapolation by fixed multipoles:
  | Hartree multipole sum: apparent total charge =  -0.122231E-04
  Summing up the Hartree potential.
  Time summed over all CPUs for potential: real work        0.033 s, elapsed        0.034 s
  | RMS charge density error from multipole expansion :   0.692211E-03

  Integrating Hamiltonian matrix: batch-based integration.
  Time summed over all CPUs for integration: real work        0.067 s, elapsed        0.071 s

  Updating Kohn-Sham eigenvalues, eigenvectors, occupation numbers, and Fermi level.
  Solving generalized eigenproblem
  Solving real symmetric generalised eigenvalue problem by standard ScaLAPACK.
  Using Cholesky factor for transformation
  Using 1-stage real ELPA solver
  Solving real symmetric generalised eigenvalue problem by standard ScaLAPACK.
  Using Cholesky factor for transformation
  Using 1-stage real ELPA solver
  Determining occupation numbers for Kohn-Sham eigenstates.
  | Chemical potential (Fermi level) in eV                 : -.78780352E+01
  | Error in electron count due to remaining E_F inaccuracy: 0.00000000E+00
  | Maximum occupation number of highest empty state:  0.00E+00

  Current spin moment of the entire structure :
  | N = N_up - N_down :    0.00
  | S                 :    0.00
  | J                 :    1.00

  Highest occupied state (VBM) at    -11.92971384 eV
  | Occupation number:      1.00000000
  | Spin channel:        2

  Lowest unoccupied state (CBM) at     0.24152069 eV
  | Occupation number:      0.00000000
  | Spin channel:        1

  Overall HOMO-LUMO gap:     12.17123453 eV.

  Total energy components:
  | Sum of eigenvalues            :          -1.00918923 Ha         -27.46143630 eV
  | XC energy correction          :          -0.49724635 Ha         -13.53076170 eV
  | XC potential correction       :           0.63956643 Ha          17.40348794 eV
  | Free-atom electrostatic energy:          -0.17800531 Ha          -4.84377085 eV
  | Hartree energy correction     :           0.09496599 Ha           2.58415619 eV
  | van der Waals energy corr.    :           0.00000000 Ha           0.00000000 eV
  | Entropy correction            :           0.00000000 Ha           0.00000000 eV
  | ---------------------------
  | Total energy                  :          -0.94990847 Ha         -25.84832472 eV
  | Total energy, T -> 0          :          -0.94990847 Ha         -25.84832472 eV  <-- do not rely on this value for anything but (periodic) metals
  | Electronic free energy        :          -0.94990847 Ha         -25.84832472 eV

  Derived energy quantities:
  | Kinetic energy                :           0.57505278 Ha          15.64798232 eV
  | Electrostatic energy          :          -1.02771490 Ha         -27.96554533 eV
  | Energy correction for multipole
  | error in Hartree potential    :           0.00007352 Ha           0.00200063 eV
  | Sum of eigenvalues per atom                           :         -13.73071815 eV
  | Total energy (T->0) per atom                          :         -12.92416236 eV  <-- do not rely on this value for anything but (periodic) metals
  | Electronic free energy per atom                       :         -12.92416236 eV

  Self-consistency convergence accuracy:
  | Change of charge/spin density : 0.1665E+00 0.2853E+00
  | Change of sum of eigenvalues  : -.5869E+00 eV
  | Change of total energy        : 0.4740E+00 eV

  End self-consistency iteration #     4       :  max(cpu_time)    wall_clock(cpu1)
  | Time for this iteration                    :        0.028 s           0.024 s
  | Charge density update                      :        0.009 s           0.006 s
  | Density mixing                             :        0.001 s           0.001 s
  | Hartree multipole update                   :        0.001 s           0.001 s
  | Hartree multipole summation                :        0.005 s           0.005 s
  | Integration                                :        0.009 s           0.009 s
  | Solution of K.-S. eqns.                    :        0.001 s           0.001 s
  | Total energy evaluation                    :        0.000 s           0.000 s
------------------------------------------------------------

------------------------------------------------------------
          Begin self-consistency iteration #    5

  Date     :  20220120, Time     :  153918.784
------------------------------------------------------------
  Evaluating new KS density.
  Integration grid: deviation in total charge (<rho> - N_e) =   1.885657E-07
  | <rho_up-rho_dn> = N_up-N_dn =     -1.6279; <|rho_up-rho_dn|> =      1.6279
  Pulay mixing of updated and previous charge densities.

  Evaluating partitioned Hartree potential by multipole expansion.
  | Analytical far-field extrapolation by fixed multipoles:
  | Hartree multipole sum: apparent total charge =  -0.121258E-04
  Summing up the Hartree potential.
  Time summed over all CPUs for potential: real work        0.032 s, elapsed        0.034 s
  | RMS charge density error from multipole expansion :   0.511508E-02

  Integrating Hamiltonian matrix: batch-based integration.
  Time summed over all CPUs for integration: real work        0.071 s, elapsed        0.075 s

  Updating Kohn-Sham eigenvalues, eigenvectors, occupation numbers, and Fermi level.
  Solving generalized eigenproblem
  Solving real symmetric generalised eigenvalue problem by standard ScaLAPACK.
  Using Cholesky factor for transformation
  Using 1-stage real ELPA solver
  Solving real symmetric generalised eigenvalue problem by standard ScaLAPACK.
  Using Cholesky factor for transformation
  Using 1-stage real ELPA solver
  Determining occupation numbers for Kohn-Sham eigenstates.
  | Chemical potential (Fermi level) in eV                 : -.17903685E+02
  | Error in electron count due to remaining E_F inaccuracy: 0.00000000E+00
  | Maximum occupation number of highest empty state:  0.00E+00

  Current spin moment of the entire structure :
  | N = N_up - N_down :    0.00
  | S                 :    0.00
  | J                 :    1.00

  Highest occupied state (VBM) at    -19.43848962 eV
  | Occupation number:      1.00000000
  | Spin channel:        2

  Lowest unoccupied state (CBM) at    -1.74615076 eV
  | Occupation number:      0.00000000
  | Spin channel:        1

  Overall HOMO-LUMO gap:     17.69233886 eV.

  Total energy components:
  | Sum of eigenvalues            :          -1.47594540 Ha         -40.16251772 eV
  | XC energy correction          :          -0.64961263 Ha         -17.67685915 eV
  | XC potential correction       :           0.83441218 Ha          22.70551067 eV
  | Free-atom electrostatic energy:          -0.17800531 Ha          -4.84377085 eV
  | Hartree energy correction     :           0.16278432 Ha           4.42958686 eV
  | van der Waals energy corr.    :           0.00000000 Ha           0.00000000 eV
  | Entropy correction            :           0.00000000 Ha           0.00000000 eV
  | ---------------------------
  | Total energy                  :          -1.30636683 Ha         -35.54805020 eV
  | Total energy, T -> 0          :          -1.30636683 Ha         -35.54805020 eV  <-- do not rely on this value for anything but (periodic) metals
  | Electronic free energy        :          -1.30636683 Ha         -35.54805020 eV

  Derived energy quantities:
  | Kinetic energy                :          -0.99966121 Ha         -27.20216567 eV
  | Electrostatic energy          :           0.34290701 Ha           9.33097463 eV
  | Energy correction for multipole
  | error in Hartree potential    :           0.00092402 Ha           0.02514376 eV
  | Sum of eigenvalues per atom                           :         -20.08125886 eV
  | Total energy (T->0) per atom                          :         -17.77402510 eV  <-- do not rely on this value for anything but (periodic) metals
  | Electronic free energy per atom                       :         -17.77402510 eV

  Self-consistency convergence accuracy:
  | Change of charge/spin density : 0.2213E+00 0.2411E+00
  | Change of sum of eigenvalues  : -.1270E+02 eV
  | Change of total energy        : -.9700E+01 eV

  End self-consistency iteration #     5       :  max(cpu_time)    wall_clock(cpu1)
  | Time for this iteration                    :        0.026 s           0.025 s
  | Charge density update                      :        0.006 s           0.006 s
  | Density mixing                             :        0.001 s           0.001 s
  | Hartree multipole update                   :        0.001 s           0.002 s
  | Hartree multipole summation                :        0.004 s           0.004 s
  | Integration                                :        0.010 s           0.010 s
  | Solution of K.-S. eqns.                    :        0.001 s           0.001 s
  | Total energy evaluation                    :        0.000 s           0.001 s
------------------------------------------------------------

------------------------------------------------------------
          Begin self-consistency iteration #    6

  Date     :  20220120, Time     :  153918.811
------------------------------------------------------------
  Evaluating new KS density.
  Integration grid: deviation in total charge (<rho> - N_e) =   8.731444E-08
  | <rho_up-rho_dn> = N_up-N_dn =     -0.5355; <|rho_up-rho_dn|> =      0.8748
  Pulay mixing of updated and previous charge densities.

  Evaluating partitioned Hartree potential by multipole expansion.
  | Analytical far-field extrapolation by fixed multipoles:
  | Hartree multipole sum: apparent total charge =  -0.143140E-04
  Summing up the Hartree potential.
  Time summed over all CPUs for potential: real work        0.033 s, elapsed        0.035 s
  | RMS charge density error from multipole expansion :   0.840119E-02

  Integrating Hamiltonian matrix: batch-based integration.
  Time summed over all CPUs for integration: real work        0.073 s, elapsed        0.080 s

  Updating Kohn-Sham eigenvalues, eigenvectors, occupation numbers, and Fermi level.
  Solving generalized eigenproblem
  Solving real symmetric generalised eigenvalue problem by standard ScaLAPACK.
  Using Cholesky factor for transformation
  Using 1-stage real ELPA solver
  Solving real symmetric generalised eigenvalue problem by standard ScaLAPACK.
  Using Cholesky factor for transformation
  Using 1-stage real ELPA solver
  Determining occupation numbers for Kohn-Sham eigenstates.
  | Chemical potential (Fermi level) in eV                 : -.23875852E+02
  | Error in electron count due to remaining E_F inaccuracy: 0.00000000E+00
  | Maximum occupation number of highest empty state:  0.00E+00

  Current spin moment of the entire structure :
  | N = N_up - N_down :    0.00
  | S                 :    0.00
  | J                 :    1.00

  Highest occupied state (VBM) at    -25.94543205 eV
  | Occupation number:      1.00000000
  | Spin channel:        2

  Lowest unoccupied state (CBM) at    -3.28199644 eV
  | Occupation number:      0.00000000
  | Spin channel:        1

  Overall HOMO-LUMO gap:     22.66343561 eV.

  Total energy components:
  | Sum of eigenvalues            :          -1.94738614 Ha         -52.99107300 eV
  | XC energy correction          :          -0.78999342 Ha         -21.49681481 eV
  | XC potential correction       :           1.01578311 Ha          27.64086480 eV
  | Free-atom electrostatic energy:          -0.17800531 Ha          -4.84377085 eV
  | Hartree energy correction     :           0.02981178 Ha           0.81121978 eV
  | van der Waals energy corr.    :           0.00000000 Ha           0.00000000 eV
  | Entropy correction            :           0.00000000 Ha           0.00000000 eV
  | ---------------------------
  | Total energy                  :          -1.86978998 Ha         -50.87957406 eV
  | Total energy, T -> 0          :          -1.86978998 Ha         -50.87957406 eV  <-- do not rely on this value for anything but (periodic) metals
  | Electronic free energy        :          -1.86978998 Ha         -50.87957406 eV

  Derived energy quantities:
  | Kinetic energy                :          -2.70414278 Ha         -73.58346886 eV
  | Electrostatic energy          :           1.62434622 Ha          44.20070960 eV
  | Energy correction for multipole
  | error in Hartree potential    :           0.00151642 Ha           0.04126399 eV
  | Sum of eigenvalues per atom                           :         -26.49553650 eV
  | Total energy (T->0) per atom                          :         -25.43978703 eV  <-- do not rely on this value for anything but (periodic) metals
  | Electronic free energy per atom                       :         -25.43978703 eV

  Self-consistency convergence accuracy:
  | Change of charge/spin density : 0.7718E+00 0.1947E+00
  | Change of sum of eigenvalues  : -.1283E+02 eV
  | Change of total energy        : -.1533E+02 eV

  End self-consistency iteration #     6       :  max(cpu_time)    wall_clock(cpu1)
  | Time for this iteration                    :        0.028 s           0.027 s
  | Charge density update                      :        0.007 s           0.006 s
  | Density mixing                             :        0.002 s           0.002 s
  | Hartree multipole update                   :        0.002 s           0.001 s
  | Hartree multipole summation                :        0.005 s           0.005 s
  | Integration                                :        0.010 s           0.010 s
  | Solution of K.-S. eqns.                    :        0.001 s           0.002 s
  | Total energy evaluation                    :        0.000 s           0.001 s
------------------------------------------------------------

------------------------------------------------------------
          Begin self-consistency iteration #    7

  Date     :  20220120, Time     :  153918.840
------------------------------------------------------------
  Evaluating new KS density.
  Integration grid: deviation in total charge (<rho> - N_e) =   5.738715E-08
  | <rho_up-rho_dn> = N_up-N_dn =     -0.3348; <|rho_up-rho_dn|> =      1.0964
  Pulay mixing of updated and previous charge densities.

  Evaluating partitioned Hartree potential by multipole expansion.
  | Analytical far-field extrapolation by fixed multipoles:
  | Hartree multipole sum: apparent total charge =  -0.141159E-04
  Summing up the Hartree potential.
  Time summed over all CPUs for potential: real work        0.033 s, elapsed        0.034 s
  | RMS charge density error from multipole expansion :   0.818245E-02

  Integrating Hamiltonian matrix: batch-based integration.
  Time summed over all CPUs for integration: real work        0.070 s, elapsed        0.074 s

  Updating Kohn-Sham eigenvalues, eigenvectors, occupation numbers, and Fermi level.
  Solving generalized eigenproblem
  Solving real symmetric generalised eigenvalue problem by standard ScaLAPACK.
  Using Cholesky factor for transformation
  Using 1-stage real ELPA solver
  Solving real symmetric generalised eigenvalue problem by standard ScaLAPACK.
  Using Cholesky factor for transformation
  Using 1-stage real ELPA solver
  Determining occupation numbers for Kohn-Sham eigenstates.
  | Chemical potential (Fermi level) in eV                 : -.23366000E+02
  | Error in electron count due to remaining E_F inaccuracy: 0.00000000E+00
  | Maximum occupation number of highest empty state:  0.00E+00

  Current spin moment of the entire structure :
  | N = N_up - N_down :    0.00
  | S                 :    0.00
  | J                 :    1.00

  Highest occupied state (VBM) at    -25.40514689 eV
  | Occupation number:      1.00000000
  | Spin channel:        2

  Lowest unoccupied state (CBM) at    -3.12186242 eV
  | Occupation number:      0.00000000
  | Spin channel:        1

  Overall HOMO-LUMO gap:     22.28328447 eV.

  Total energy components:
  | Sum of eigenvalues            :          -1.90764636 Ha         -51.90969858 eV
  | XC energy correction          :          -0.77914447 Ha         -21.20159979 eV
  | XC potential correction       :           1.00177052 Ha          27.25956282 eV
  | Free-atom electrostatic energy:          -0.17800531 Ha          -4.84377085 eV
  | Hartree energy correction     :           0.04490544 Ha           1.22193925 eV
  | van der Waals energy corr.    :           0.00000000 Ha           0.00000000 eV
  | Entropy correction            :           0.00000000 Ha           0.00000000 eV
  | ---------------------------
  | Total energy                  :          -1.81812017 Ha         -49.47356715 eV
  | Total energy, T -> 0          :          -1.81812017 Ha         -49.47356715 eV  <-- do not rely on this value for anything but (periodic) metals
  | Electronic free energy        :          -1.81812017 Ha         -49.47356715 eV

  Derived energy quantities:
  | Kinetic energy                :          -2.56827690 Ha         -69.88637023 eV
  | Electrostatic energy          :           1.52930120 Ha          41.61440287 eV
  | Energy correction for multipole
  | error in Hartree potential    :           0.00147799 Ha           0.04021819 eV
  | Sum of eigenvalues per atom                           :         -25.95484929 eV
  | Total energy (T->0) per atom                          :         -24.73678357 eV  <-- do not rely on this value for anything but (periodic) metals
  | Electronic free energy per atom                       :         -24.73678357 eV

  Self-consistency convergence accuracy:
  | Change of charge/spin density : 0.1200E+01 0.3420E+00
  | Change of sum of eigenvalues  : 0.1081E+01 eV
  | Change of total energy        : 0.1406E+01 eV

  End self-consistency iteration #     7       :  max(cpu_time)    wall_clock(cpu1)
  | Time for this iteration                    :        0.026 s           0.026 s
  | Charge density update                      :        0.006 s           0.006 s
  | Density mixing                             :        0.002 s           0.002 s
  | Hartree multipole update                   :        0.001 s           0.001 s
  | Hartree multipole summation                :        0.004 s           0.005 s
  | Integration                                :        0.009 s           0.009 s
  | Solution of K.-S. eqns.                    :        0.001 s           0.001 s
  | Total energy evaluation                    :        0.000 s           0.000 s
------------------------------------------------------------

------------------------------------------------------------
          Begin self-consistency iteration #    8

  Date     :  20220120, Time     :  153918.869
------------------------------------------------------------
  Evaluating new KS density.
  Integration grid: deviation in total charge (<rho> - N_e) =   5.852285E-08
  | <rho_up-rho_dn> = N_up-N_dn =     -0.3431; <|rho_up-rho_dn|> =      1.0771
  Pulay mixing of updated and previous charge densities.

  Evaluating partitioned Hartree potential by multipole expansion.
  | Analytical far-field extrapolation by fixed multipoles:
  | Hartree multipole sum: apparent total charge =  -0.241336E-04
  Summing up the Hartree potential.
  Time summed over all CPUs for potential: real work        0.033 s, elapsed        0.034 s
  | RMS charge density error from multipole expansion :   0.163416E-01

  Integrating Hamiltonian matrix: batch-based integration.
  Time summed over all CPUs for integration: real work        0.070 s, elapsed        0.074 s

  Updating Kohn-Sham eigenvalues, eigenvectors, occupation numbers, and Fermi level.
  Solving generalized eigenproblem
  Solving real symmetric generalised eigenvalue problem by standard ScaLAPACK.
  Using Cholesky factor for transformation
  Using 1-stage real ELPA solver
  Solving real symmetric generalised eigenvalue problem by standard ScaLAPACK.
  Using Cholesky factor for transformation
  Using 1-stage real ELPA solver
  Determining occupation numbers for Kohn-Sham eigenstates.
  | Chemical potential (Fermi level) in eV                 : -.45742698E+02
  | Error in electron count due to remaining E_F inaccuracy: 0.00000000E+00
  | Maximum occupation number of highest empty state:  0.00E+00

  Current spin moment of the entire structure :
  | N = N_up - N_down :    0.00
  | S                 :    0.00
  | J                 :    1.00

  Highest occupied state (VBM) at    -49.57223171 eV
  | Occupation number:      1.00000000
  | Spin channel:        2

  Lowest unoccupied state (CBM) at   -11.79077957 eV
  | Occupation number:      0.00000000
  | Spin channel:        1

  Overall HOMO-LUMO gap:     37.78145215 eV.

  Total energy components:
  | Sum of eigenvalues            :          -3.67038281 Ha         -99.87619802 eV
  | XC energy correction          :          -1.21163481 Ha         -32.97026071 eV
  | XC potential correction       :           1.56106585 Ha          42.47876304 eV
  | Free-atom electrostatic energy:          -0.17800531 Ha          -4.84377085 eV
  | Hartree energy correction     :          -1.26624575 Ha         -34.45629985 eV
  | van der Waals energy corr.    :           0.00000000 Ha           0.00000000 eV
  | Entropy correction            :           0.00000000 Ha           0.00000000 eV
  | ---------------------------
  | Total energy                  :          -4.76520283 Ha        -129.66776637 eV
  | Total energy, T -> 0          :          -4.76520283 Ha        -129.66776637 eV  <-- do not rely on this value for anything but (periodic) metals
  | Electronic free energy        :          -4.76520283 Ha        -129.66776637 eV

  Derived energy quantities:
  | Kinetic energy                :          -9.55175025 Ha        -259.91634883 eV
  | Electrostatic energy          :           5.99818224 Ha         163.21884316 eV
  | Energy correction for multipole
  | error in Hartree potential    :           0.00283386 Ha           0.07711316 eV
  | Sum of eigenvalues per atom                           :         -49.93809901 eV
  | Total energy (T->0) per atom                          :         -64.83388319 eV  <-- do not rely on this value for anything but (periodic) metals
  | Electronic free energy per atom                       :         -64.83388319 eV

  Self-consistency convergence accuracy:
  | Change of charge/spin density : 0.1171E+01 0.3321E+00
  | Change of sum of eigenvalues  : -.4797E+02 eV
  | Change of total energy        : -.8019E+02 eV

  End self-consistency iteration #     8       :  max(cpu_time)    wall_clock(cpu1)
  | Time for this iteration                    :        0.026 s           0.026 s
  | Charge density update                      :        0.006 s           0.006 s
  | Density mixing                             :        0.002 s           0.002 s
  | Hartree multipole update                   :        0.001 s           0.001 s
  | Hartree multipole summation                :        0.004 s           0.005 s
  | Integration                                :        0.009 s           0.009 s
  | Solution of K.-S. eqns.                    :        0.001 s           0.002 s
  | Total energy evaluation                    :        0.000 s           0.001 s
------------------------------------------------------------

------------------------------------------------------------
          Begin self-consistency iteration #    9

  Date     :  20220120, Time     :  153918.898
------------------------------------------------------------
  Evaluating new KS density.
  Integration grid: deviation in total charge (<rho> - N_e) =   5.934609E-08
  | <rho_up-rho_dn> = N_up-N_dn =     -0.2627; <|rho_up-rho_dn|> =      2.0019
  Pulay mixing of updated and previous charge densities.

  Evaluating partitioned Hartree potential by multipole expansion.
  | Analytical far-field extrapolation by fixed multipoles:
  | Hartree multipole sum: apparent total charge =  -0.198979E-04
  Summing up the Hartree potential.
  Time summed over all CPUs for potential: real work        0.032 s, elapsed        0.034 s
  | RMS charge density error from multipole expansion :   0.145912E-01

  Integrating Hamiltonian matrix: batch-based integration.
  Time summed over all CPUs for integration: real work        0.070 s, elapsed        0.074 s

  Updating Kohn-Sham eigenvalues, eigenvectors, occupation numbers, and Fermi level.
  Solving generalized eigenproblem
  Solving real symmetric generalised eigenvalue problem by standard ScaLAPACK.
  Using Cholesky factor for transformation
  Using 1-stage real ELPA solver
  Solving real symmetric generalised eigenvalue problem by standard ScaLAPACK.
  Using Cholesky factor for transformation
  Using 1-stage real ELPA solver
  Determining occupation numbers for Kohn-Sham eigenstates.
  | Chemical potential (Fermi level) in eV                 : -.39057578E+02
  | Error in electron count due to remaining E_F inaccuracy: 0.00000000E+00
  | Maximum occupation number of highest empty state:  0.00E+00

  Current spin moment of the entire structure :
  | N = N_up - N_down :    0.00
  | S                 :    0.00
  | J                 :    1.00

  Highest occupied state (VBM) at    -42.37694366 eV
  | Occupation number:      1.00000000
  | Spin channel:        2

  Lowest unoccupied state (CBM) at    -8.66133968 eV
  | Occupation number:      0.00000000
  | Spin channel:        1

  Overall HOMO-LUMO gap:     33.71560398 eV.

  Total energy components:
  | Sum of eigenvalues            :          -3.14454858 Ha         -85.56752049 eV
  | XC energy correction          :          -1.10961537 Ha         -30.19417061 eV
  | XC potential correction       :           1.42908771 Ha          38.88745512 eV
  | Free-atom electrostatic energy:          -0.17800531 Ha          -4.84377085 eV
  | Hartree energy correction     :          -0.81030458 Ha         -22.04950944 eV
  | van der Waals energy corr.    :           0.00000000 Ha           0.00000000 eV
  | Entropy correction            :           0.00000000 Ha           0.00000000 eV
  | ---------------------------
  | Total energy                  :          -3.81338613 Ha        -103.76751626 eV
  | Total energy, T -> 0          :          -3.81338613 Ha        -103.76751626 eV  <-- do not rely on this value for anything but (periodic) metals
  | Electronic free energy        :          -3.81338613 Ha        -103.76751626 eV

  Derived energy quantities:
  | Kinetic energy                :          -7.42125167 Ha        -201.94253260 eV
  | Electrostatic energy          :           4.71748091 Ha         128.36918695 eV
  | Energy correction for multipole
  | error in Hartree potential    :           0.00262700 Ha           0.07148441 eV
  | Sum of eigenvalues per atom                           :         -42.78376024 eV
  | Total energy (T->0) per atom                          :         -51.88375813 eV  <-- do not rely on this value for anything but (periodic) metals
  | Electronic free energy per atom                       :         -51.88375813 eV

  Self-consistency convergence accuracy:
  | Change of charge/spin density : 0.2279E+01 0.7009E+00
  | Change of sum of eigenvalues  : 0.1431E+02 eV
  | Change of total energy        : 0.2590E+02 eV

  End self-consistency iteration #     9       :  max(cpu_time)    wall_clock(cpu1)
  | Time for this iteration                    :        0.026 s           0.026 s
  | Charge density update                      :        0.006 s           0.006 s
  | Density mixing                             :        0.002 s           0.002 s
  | Hartree multipole update                   :        0.001 s           0.001 s
  | Hartree multipole summation                :        0.004 s           0.005 s
  | Integration                                :        0.009 s           0.009 s
  | Solution of K.-S. eqns.                    :        0.001 s           0.002 s
  | Total energy evaluation                    :        0.000 s           0.001 s
------------------------------------------------------------

------------------------------------------------------------
          Begin self-consistency iteration #   10

  Date     :  20220120, Time     :  153918.927
------------------------------------------------------------
  Evaluating new KS density.
  Integration grid: deviation in total charge (<rho> - N_e) =   2.611143E-08
  | <rho_up-rho_dn> = N_up-N_dn =     -0.0810; <|rho_up-rho_dn|> =      1.7676
  Pulay mixing of updated and previous charge densities.

  Evaluating partitioned Hartree potential by multipole expansion.
  | Analytical far-field extrapolation by fixed multipoles:
  | Hartree multipole sum: apparent total charge =   0.784173E-05
  Summing up the Hartree potential.
  Time summed over all CPUs for potential: real work        0.032 s, elapsed        0.034 s
  | RMS charge density error from multipole expansion :   0.741159E-02

  Integrating Hamiltonian matrix: batch-based integration.
  Time summed over all CPUs for integration: real work        0.063 s, elapsed        0.066 s

  Updating Kohn-Sham eigenvalues, eigenvectors, occupation numbers, and Fermi level.
  Solving generalized eigenproblem
  Solving real symmetric generalised eigenvalue problem by standard ScaLAPACK.
  Using Cholesky factor for transformation
  Using 1-stage real ELPA solver
  Solving real symmetric generalised eigenvalue problem by standard ScaLAPACK.
  Using Cholesky factor for transformation
  Using 1-stage real ELPA solver
  Determining occupation numbers for Kohn-Sham eigenstates.
  | Chemical potential (Fermi level) in eV                 : 0.24519110E+01
  | Error in electron count due to remaining E_F inaccuracy: 0.00000000E+00
  | Maximum occupation number of highest empty state:  0.00E+00

  Current spin moment of the entire structure :
  | N = N_up - N_down :    0.00
  | S                 :    0.00
  | J                 :    1.00

  Highest occupied state (VBM) at      0.59020095 eV
  | Occupation number:      1.00000000
  | Spin channel:        2
 * WARNING: The VBM is higher than the internal energy zero!

  Lowest unoccupied state (CBM) at     2.72833831 eV
  | Occupation number:      0.00000000
  | Spin channel:        1

  Overall HOMO-LUMO gap:      2.13813736 eV.

  Total energy components:
  | Sum of eigenvalues            :           0.03684580 Ha           1.00262521 eV
  | XC energy correction          :          -1.48254416 Ha         -40.34207931 eV
  | XC potential correction       :           1.91310440 Ha          52.05821939 eV
  | Free-atom electrostatic energy:          -0.17800531 Ha          -4.84377085 eV
  | Hartree energy correction     :          -1.86148253 Ha         -50.65351695 eV
  | van der Waals energy corr.    :           0.00000000 Ha           0.00000000 eV
  | Entropy correction            :           0.00000000 Ha           0.00000000 eV
  | ---------------------------
  | Total energy                  :          -1.57208181 Ha         -42.77852251 eV
  | Total energy, T -> 0          :          -1.57208181 Ha         -42.77852251 eV  <-- do not rely on this value for anything but (periodic) metals
  | Electronic free energy        :          -1.57208181 Ha         -42.77852251 eV

  Derived energy quantities:
  | Kinetic energy                :           2.59342735 Ha          70.57074878 eV
  | Electrostatic energy          :          -2.68296499 Ha         -73.00719199 eV
  | Energy correction for multipole
  | error in Hartree potential    :          -0.00077971 Ha          -0.02121696 eV
  | Sum of eigenvalues per atom                           :           0.50131260 eV
  | Total energy (T->0) per atom                          :         -21.38926125 eV  <-- do not rely on this value for anything but (periodic) metals
  | Electronic free energy per atom                       :         -21.38926125 eV

  Self-consistency convergence accuracy:
  | Change of charge/spin density : 0.2021E+01 0.6386E+00
  | Change of sum of eigenvalues  : 0.8657E+02 eV
  | Change of total energy        : 0.6099E+02 eV

  End self-consistency iteration #    10       :  max(cpu_time)    wall_clock(cpu1)
  | Time for this iteration                    :        0.027 s           0.025 s
  | Charge density update                      :        0.009 s           0.006 s
  | Density mixing                             :        0.002 s           0.002 s
  | Hartree multipole update                   :        0.001 s           0.002 s
  | Hartree multipole summation                :        0.004 s           0.004 s
  | Integration                                :        0.008 s           0.009 s
  | Solution of K.-S. eqns.                    :        0.001 s           0.001 s
  | Total energy evaluation                    :        0.000 s           0.001 s
------------------------------------------------------------

------------------------------------------------------------
          Begin self-consistency iteration #   11

  Date     :  20220120, Time     :  153918.953
------------------------------------------------------------
  Evaluating new KS density.
  Integration grid: deviation in total charge (<rho> - N_e) =   8.267408E-09
  | <rho_up-rho_dn> = N_up-N_dn =     -0.0013; <|rho_up-rho_dn|> =      1.0001
  Pulay mixing of updated and previous charge densities.

  Evaluating partitioned Hartree potential by multipole expansion.
  | Analytical far-field extrapolation by fixed multipoles:
  | Hartree multipole sum: apparent total charge =  -0.537797E-05
  Summing up the Hartree potential.
  Time summed over all CPUs for potential: real work        0.033 s, elapsed        0.035 s
  | RMS charge density error from multipole expansion :   0.477909E-02

  Integrating Hamiltonian matrix: batch-based integration.
  Time summed over all CPUs for integration: real work        0.068 s, elapsed        0.072 s

  Updating Kohn-Sham eigenvalues, eigenvectors, occupation numbers, and Fermi level.
  Solving generalized eigenproblem
  Solving real symmetric generalised eigenvalue problem by standard ScaLAPACK.
  Using Cholesky factor for transformation
  Using 1-stage real ELPA solver
  Solving real symmetric generalised eigenvalue problem by standard ScaLAPACK.
  Using Cholesky factor for transformation
  Using 1-stage real ELPA solver
  Determining occupation numbers for Kohn-Sham eigenstates.
  | Chemical potential (Fermi level) in eV                 : -.14066525E+02
  | Error in electron count due to remaining E_F inaccuracy: 0.00000000E+00
  | Maximum occupation number of highest empty state:  0.00E+00

  Current spin moment of the entire structure :
  | N = N_up - N_down :    0.00
  | S                 :    0.00
  | J                 :    1.00

  Highest occupied state (VBM) at    -16.54440730 eV
  | Occupation number:      1.00000000
  | Spin channel:        2

  Lowest unoccupied state (CBM) at     0.13743144 eV
  | Occupation number:      0.00000000
  | Spin channel:        1

  Overall HOMO-LUMO gap:     16.68183874 eV.

  Total energy components:
  | Sum of eigenvalues            :          -1.22117980 Ha         -33.22999313 eV
  | XC energy correction          :          -0.66895183 Ha         -18.20310540 eV
  | XC potential correction       :           0.85949144 Ha          23.38795214 eV
  | Free-atom electrostatic energy:          -0.17800531 Ha          -4.84377085 eV
  | Hartree energy correction     :           0.04823890 Ha           1.31264732 eV
  | van der Waals energy corr.    :           0.00000000 Ha           0.00000000 eV
  | Entropy correction            :           0.00000000 Ha           0.00000000 eV
  | ---------------------------
  | Total energy                  :          -1.16040659 Ha         -31.57626992 eV
  | Total energy, T -> 0          :          -1.16040659 Ha         -31.57626992 eV  <-- do not rely on this value for anything but (periodic) metals
  | Electronic free energy        :          -1.16040659 Ha         -31.57626992 eV

  Derived energy quantities:
  | Kinetic energy                :          -0.35616130 Ha          -9.69164204 eV
  | Electrostatic energy          :          -0.13529346 Ha          -3.68152249 eV
  | Energy correction for multipole
  | error in Hartree potential    :           0.00104777 Ha           0.02851116 eV
  | Sum of eigenvalues per atom                           :         -16.61499656 eV
  | Total energy (T->0) per atom                          :         -15.78813496 eV  <-- do not rely on this value for anything but (periodic) metals
[...]
  | Change of sum of eigenvalues  : 0.6724E-04 eV
  | Change of total energy        : -.5107E-07 eV

  End self-consistency iteration #    27       :  max(cpu_time)    wall_clock(cpu1)
  | Time for this iteration                    :        0.026 s           0.026 s
  | Charge density update                      :        0.006 s           0.006 s
  | Density mixing                             :        0.002 s           0.002 s
  | Hartree multipole update                   :        0.001 s           0.001 s
  | Hartree multipole summation                :        0.005 s           0.005 s
  | Integration                                :        0.010 s           0.009 s
  | Solution of K.-S. eqns.                    :        0.001 s           0.002 s
  | Total energy evaluation                    :        0.000 s           0.001 s
------------------------------------------------------------

------------------------------------------------------------
          Begin self-consistency iteration #   28

  Date     :  20220120, Time     :  153919.460
------------------------------------------------------------
  Evaluating new KS density.
  Integration grid: deviation in total charge (<rho> - N_e) =  -1.667555E-12
  | <rho_up-rho_dn> = N_up-N_dn =      0.0000; <|rho_up-rho_dn|> =      0.0000
  Pulay mixing of updated and previous charge densities.

  Evaluating partitioned Hartree potential by multipole expansion.
  | Analytical far-field extrapolation by fixed multipoles:
  | Hartree multipole sum: apparent total charge =   0.115772E-05
  Summing up the Hartree potential.
  Time summed over all CPUs for potential: real work        0.033 s, elapsed        0.034 s
  | RMS charge density error from multipole expansion :   0.170171E-02

  Integrating Hamiltonian matrix: batch-based integration.
  Time summed over all CPUs for integration: real work        0.072 s, elapsed        0.075 s

  Updating Kohn-Sham eigenvalues, eigenvectors, occupation numbers, and Fermi level.
  Solving generalized eigenproblem
  Solving real symmetric generalised eigenvalue problem by standard ScaLAPACK.
  Using Cholesky factor for transformation
  Using 1-stage real ELPA solver
  Solving real symmetric generalised eigenvalue problem by standard ScaLAPACK.
  Using Cholesky factor for transformation
  Using 1-stage real ELPA solver
  Determining occupation numbers for Kohn-Sham eigenstates.
  | Chemical potential (Fermi level) in eV                 : -.96004065E+01
  | Error in electron count due to remaining E_F inaccuracy: 0.00000000E+00
  | Maximum occupation number of highest empty state:  0.00E+00

  Current spin moment of the entire structure :
  | N = N_up - N_down :    0.00
  | S                 :    0.00
  | J                 :    1.00

  Highest occupied state (VBM) at    -11.26088807 eV
  | Occupation number:      1.00000000
  | Spin channel:        1

  Lowest unoccupied state (CBM) at     1.06569723 eV
  | Occupation number:      0.00000000
  | Spin channel:        2

  Overall HOMO-LUMO gap:     12.32658529 eV.

  Total energy components:
  | Sum of eigenvalues            :          -0.82766014 Ha         -22.52177831 eV
  | XC energy correction          :          -0.74879477 Ha         -20.37574252 eV
  | XC potential correction       :           0.96109407 Ha          26.15270018 eV
  | Free-atom electrostatic energy:          -0.17800531 Ha          -4.84377085 eV
  | Hartree energy correction     :          -0.34609837 Ha          -9.41781574 eV
  | van der Waals energy corr.    :           0.00000000 Ha           0.00000000 eV
  | Entropy correction            :           0.00000000 Ha           0.00000000 eV
  | ---------------------------
  | Total energy                  :          -1.13946452 Ha         -31.00640723 eV
  | Total energy, T -> 0          :          -1.13946452 Ha         -31.00640723 eV  <-- do not rely on this value for anything but (periodic) metals
  | Electronic free energy        :          -1.13946452 Ha         -31.00640723 eV

  Derived energy quantities:
  | Kinetic energy                :           1.32917827 Ha          36.16878111 eV
  | Electrostatic energy          :          -1.71984802 Ha         -46.79944582 eV
  | Energy correction for multipole
  | error in Hartree potential    :          -0.00003243 Ha          -0.00088260 eV
  | Sum of eigenvalues per atom                           :         -11.26088916 eV
  | Total energy (T->0) per atom                          :         -15.50320362 eV  <-- do not rely on this value for anything but (periodic) metals
  | Electronic free energy per atom                       :         -15.50320362 eV

  Self-consistency convergence accuracy:
  | Change of charge/spin density : 0.4064E-05 0.1801E-05
  | Change of sum of eigenvalues  : -.2345E-03 eV
  | Change of total energy        : -.1386E-07 eV

  End self-consistency iteration #    28       :  max(cpu_time)    wall_clock(cpu1)
  | Time for this iteration                    :        0.026 s           0.026 s
  | Charge density update                      :        0.006 s           0.006 s
  | Density mixing                             :        0.002 s           0.002 s
  | Hartree multipole update                   :        0.001 s           0.001 s
  | Hartree multipole summation                :        0.004 s           0.005 s
  | Integration                                :        0.009 s           0.010 s
  | Solution of K.-S. eqns.                    :        0.001 s           0.001 s
  | Total energy evaluation                    :        0.000 s           0.001 s
------------------------------------------------------------

------------------------------------------------------------
          Begin self-consistency iteration #   29

  Date     :  20220120, Time     :  153919.490
------------------------------------------------------------
  Evaluating new KS density.
  Integration grid: deviation in total charge (<rho> - N_e) =  -6.803447E-13
  | <rho_up-rho_dn> = N_up-N_dn =     -0.0000; <|rho_up-rho_dn|> =      0.0000
  Pulay mixing of updated and previous charge densities.

  Evaluating partitioned Hartree potential by multipole expansion.
  | Analytical far-field extrapolation by fixed multipoles:
  | Hartree multipole sum: apparent total charge =   0.115748E-05
  Summing up the Hartree potential.
  Time summed over all CPUs for potential: real work        0.032 s, elapsed        0.034 s
  | RMS charge density error from multipole expansion :   0.170171E-02

  Integrating Hamiltonian matrix: batch-based integration.
  Time summed over all CPUs for integration: real work        0.074 s, elapsed        0.078 s

  Updating Kohn-Sham eigenvalues, eigenvectors, occupation numbers, and Fermi level.
  Solving generalized eigenproblem
  Solving real symmetric generalised eigenvalue problem by standard ScaLAPACK.
  Using Cholesky factor for transformation
  Using 1-stage real ELPA solver
  Solving real symmetric generalised eigenvalue problem by standard ScaLAPACK.
  Using Cholesky factor for transformation
  Using 1-stage real ELPA solver
  Determining occupation numbers for Kohn-Sham eigenstates.
  | Chemical potential (Fermi level) in eV                 : -.96012467E+01
  | Error in electron count due to remaining E_F inaccuracy: 0.00000000E+00
  | Maximum occupation number of highest empty state:  0.00E+00

  Current spin moment of the entire structure :
  | N = N_up - N_down :    0.00
  | S                 :    0.00
  | J                 :    1.00

  Highest occupied state (VBM) at    -11.26088373 eV
  | Occupation number:      1.00000000
  | Spin channel:        2

  Lowest unoccupied state (CBM) at     1.06548884 eV
  | Occupation number:      0.00000000
  | Spin channel:        1

  Overall HOMO-LUMO gap:     12.32637257 eV.

  Total energy components:
  | Sum of eigenvalues            :          -0.82765978 Ha         -22.52176863 eV
  | XC energy correction          :          -0.74879501 Ha         -20.37574886 eV
  | XC potential correction       :           0.96109441 Ha          26.15270947 eV
  | Free-atom electrostatic energy:          -0.17800531 Ha          -4.84377085 eV
  | Hartree energy correction     :          -0.34609883 Ha          -9.41782836 eV
  | van der Waals energy corr.    :           0.00000000 Ha           0.00000000 eV
  | Entropy correction            :           0.00000000 Ha           0.00000000 eV
  | ---------------------------
  | Total energy                  :          -1.13946452 Ha         -31.00640723 eV
  | Total energy, T -> 0          :          -1.13946452 Ha         -31.00640723 eV  <-- do not rely on this value for anything but (periodic) metals
  | Electronic free energy        :          -1.13946452 Ha         -31.00640723 eV

  Derived energy quantities:
  | Kinetic energy                :           1.32917849 Ha          36.16878694 eV
  | Electrostatic energy          :          -1.71984800 Ha         -46.79944532 eV
  | Energy correction for multipole
  | error in Hartree potential    :          -0.00003243 Ha          -0.00088259 eV
  | Sum of eigenvalues per atom                           :         -11.26088431 eV
  | Total energy (T->0) per atom                          :         -15.50320362 eV  <-- do not rely on this value for anything but (periodic) metals
  | Electronic free energy per atom                       :         -15.50320362 eV

  Self-consistency convergence accuracy:
  | Change of charge/spin density : 0.1020E-05 0.8199E-06
  | Change of sum of eigenvalues  : 0.9683E-05 eV
  | Change of total energy        : -.5299E-11 eV

  Writing Kohn-Sham eigenvalues.

  Spin-up eigenvalues:

  State    Occupation    Eigenvalue [Ha]    Eigenvalue [eV]
      1       1.00000          -0.413830          -11.26088
      2       0.00000           0.039156            1.06549
      3       0.00000           0.045823            1.24691
      4       0.00000           0.194708            5.29828
      5       0.00000           0.332803            9.05602
      6       0.00000           0.332803            9.05602
      7       0.00000           0.356034            9.68819
      8       0.00000           0.632792           17.21913
      9       0.00000           0.793144           21.58256
     10       0.00000           0.793144           21.58256
     11       0.00000           0.805348           21.91463

  Spin-down eigenvalues:

  State    Occupation    Eigenvalue [Ha]    Eigenvalue [eV]
      1       1.00000          -0.413830          -11.26088
      2       0.00000           0.039158            1.06554
      3       0.00000           0.045824            1.24694
      4       0.00000           0.194713            5.29840
      5       0.00000           0.332803            9.05603
      6       0.00000           0.332803            9.05603
      7       0.00000           0.356035            9.68821
      8       0.00000           0.632794           17.21920
      9       0.00000           0.793144           21.58256
     10       0.00000           0.793144           21.58256
     11       0.00000           0.805348           21.91463

  Current spin moment of the entire structure :
  | N = N_up - N_down :    0.00
  | S                 :    0.00
  | J                 :    1.00

  Highest occupied state (VBM) at    -11.26088373 eV
  | Occupation number:      1.00000000
  | Spin channel:        2

  Lowest unoccupied state (CBM) at     1.06548884 eV
  | Occupation number:      0.00000000
  | Spin channel:        1

  Overall HOMO-LUMO gap:     12.32637257 eV.

  Self-consistency cycle converged.

  End self-consistency iteration #    29       :  max(cpu_time)    wall_clock(cpu1)
  | Time for this iteration                    :        0.026 s           0.027 s
  | Charge density update                      :        0.006 s           0.006 s
  | Density mixing                             :        0.002 s           0.001 s
  | Hartree multipole update                   :        0.001 s           0.002 s
  | Hartree multipole summation                :        0.004 s           0.004 s
  | Integration                                :        0.010 s           0.010 s
  | Solution of K.-S. eqns.                    :        0.001 s           0.002 s
  | Total energy evaluation                    :        0.000 s           0.001 s
------------------------------------------------------------
  Obtaining max. number of non-zero basis functions in each batch .
  Evaluating KS electron density on previously omitted grid points.
  Evaluating non-empirical van der Waals correction (Tkatchenko/Scheffler 2009).
  Performing Hirshfeld analysis of fragment charges and moments.
  ----------------------------------------------------------------------
  | Atom     1: H
  |   Hirshfeld charge        :     -0.00000053
  |   Free atom volume        :     10.31539447
  |   Hirshfeld volume        :      4.50076613
  |   Hirshfeld spin moment   :      0.00000049
  |   Hirshfeld dipole vector :     -0.00000000      -0.00000000      -0.07108902
  |   Hirshfeld dipole moment :      0.07108902
  |   Hirshfeld second moments:      0.14510627       0.00000000      -0.00000000
  |                                  0.00000000       0.14510627      -0.00000000
  |                                 -0.00000000      -0.00000000       0.14188732
  ----------------------------------------------------------------------
  | Atom     2: H
  |   Hirshfeld charge        :     -0.00000053
  |   Free atom volume        :     10.31539447
  |   Hirshfeld volume        :      4.50076613
  |   Hirshfeld spin moment   :      0.00000049
  |   Hirshfeld dipole vector :     -0.00000000      -0.00000000       0.07108902
  |   Hirshfeld dipole moment :      0.07108902
  |   Hirshfeld second moments:      0.14510627      -0.00000000      -0.00000000
  |                                 -0.00000000       0.14510627      -0.00000000
  |                                 -0.00000000      -0.00000000       0.14188732
  ----------------------------------------------------------------------


  Total energy components:
  | Sum of eigenvalues            :          -0.82765978 Ha         -22.52176863 eV
  | XC energy correction          :          -0.74879501 Ha         -20.37574886 eV
  | XC potential correction       :           0.96109441 Ha          26.15270947 eV
  | Free-atom electrostatic energy:          -0.17800531 Ha          -4.84377085 eV
  | Hartree energy correction     :          -0.34609883 Ha          -9.41782836 eV
  | van der Waals energy corr.    :          -0.00000021 Ha          -0.00000570 eV
  | Entropy correction            :           0.00000000 Ha           0.00000000 eV
  | ---------------------------
  | Total energy                  :          -1.13946473 Ha         -31.00641294 eV
  | Total energy, T -> 0          :          -1.13946473 Ha         -31.00641294 eV  <-- do not rely on this value for anything but (periodic) metals
  | Electronic free energy        :          -1.13946473 Ha         -31.00641294 eV

  Derived energy quantities:
  | Kinetic energy                :           1.32917849 Ha          36.16878694 eV
  | Electrostatic energy          :          -1.71984800 Ha         -46.79944532 eV
  | Energy correction for multipole
  | error in Hartree potential    :          -0.00003243 Ha          -0.00088259 eV
  | Sum of eigenvalues per atom                           :         -11.26088431 eV
  | Total energy (T->0) per atom                          :         -15.50320647 eV  <-- do not rely on this value for anything but (periodic) metals
  | Electronic free energy per atom                       :         -15.50320647 eV
  Timings for VdW correction (Tkatchenko-Scheffler 2009 or later):
  | CPU time:        0.003 s, Wall clock time:        0.003 s.

  Energy and forces in a compact form:
  | Total energy uncorrected      :         -0.310064129358167E+02 eV
  | Total energy corrected        :         -0.310064129358167E+02 eV  <-- do not rely on this value for anything but (periodic) metals
  | Electronic free energy        :         -0.310064129358167E+02 eV

  ------------------------------------ 
  Start decomposition of the XC Energy 
  ------------------------------------ 
  Hartree-Fock part   :          0.000000000 Ha              0.000000000 eV
  ------------------------------------ 
  X Energy            :         -0.705230143 Ha            -19.190288595 eV
  C Energy GGA        :         -0.043564864 Ha             -1.185460263 eV
  Total XC Energy     :         -0.748795007 Ha            -20.375748858 eV
  LDA X and C from self-consistent density 
  X Energy LDA        :         -0.617395548 Ha            -16.800187640 eV
  C Energy LDA        :         -0.097840919 Ha             -2.662386855 eV
  ------------------------------------ 
  End decomposition of the XC Energy 
  ------------------------------------ 

------------------------------------------------------------------------------
  Final output of selected total energy values:

  The following output summarizes some interesting total energy values
  at the end of a run (AFTER all relaxation, molecular dynamics, etc.).

  | Total energy of the DFT / Hartree-Fock s.c.f. calculation      :            -31.006412936 eV
  | Final zero-broadening corrected energy (caution - metals only) :            -31.006412936 eV
  | For reference only, the value of 1 Hartree used in FHI-aims is :             27.211384500 eV

  Before relying on these values, please be sure to understand exactly which
  total energy value is referred to by a given number. Different objects may
  all carry the same name 'total energy'. Definitions:

  Total energy of the DFT / Hartree-Fock s.c.f. calculation:
  | Note that this energy does not include ANY quantities calculated after the
  | s.c.f. cycle, in particular not ANY RPA, MP2, etc. many-body perturbation terms.

  Final zero-broadening corrected energy:
  | For metallic systems only, a broadening of the occupation numbers at the Fermi
  | level can be extrapolated back to zero broadening by an electron-gas inspired
  | formula. For all systems that are not real metals, this value can be
  | meaningless and should be avoided.

------------------------------------------------------------------------------

------------------------------------------------------------
          Leaving FHI-aims.
          Date     :  20220120, Time     :  153919.528

          Computational steps:
          | Number of self-consistency cycles          :           29

          Detailed time accounting                     :  max(cpu_time)    wall_clock(cpu1)
          | Total time                                 :        0.938 s           1.075 s
          | Preparation time                           :        0.076 s           0.079 s
          | Grid partitioning                          :        0.007 s           0.007 s
          | Preloading free-atom quantities on grid    :        0.004 s           0.003 s
          | Free-atom superposition energy             :        0.003 s           0.003 s
          | Total time for integrations                :        0.285 s           0.284 s
          | Total time for solution of K.-S. equations :        0.046 s           0.050 s
          | Total time for density update              :        0.195 s           0.171 s
          | Total time for mixing                      :        0.049 s           0.050 s
          | Total time for Hartree multipole update    :        0.039 s           0.040 s
          | Total time for Hartree multipole sum       :        0.134 s           0.140 s
          | Total time for total energy evaluation     :        0.005 s           0.018 s
          | Total time for scaled ZORA corrections     :        0.000 s           0.000 s
          | Total time for vdW correction              :        0.003 s           0.003 s

          Have a nice day.
------------------------------------------------------------
