  MPI-parallelism will be employed.
------------------------------------------------------------
          Invoking FHI-aims ...
          Version 052014
          Git rev. (modified): 096c982 Merge branch master of fhiaims:/pub/localo[...]
          Compiled on 2016/12/16 at 15:22:01 on host login02.hpc.iitd.ac.in.

          When using FHI-aims, please cite the following reference:

          Volker Blum, Ralf Gehrke, Felix Hanke, Paula Havu,
          Ville Havu, Xinguo Ren, Karsten Reuter, and Matthias Scheffler,
          'Ab Initio Molecular Simulations with Numeric Atom-Centered Orbitals: FHI-aims',
          Computer Physics Communications 180, 2175-2196 (2009)

          For any questions about FHI-aims, please visit the aimsclub website
          with its forums and wiki. Contributions to both the forums and the
          wiki are warmly encouraged - they are for you, and everyone is welcome there.

------------------------------------------------------------

  Date     :  20220120, Time     :  153759.782
  Time zero on CPU 1             :   0.152210000000000E-01  s.
  Internal wall clock time zero  :           411925079.782  s.

  Using        8 parallel tasks.
  Task        0 on host csky021 reporting.
  Task        1 on host csky021 reporting.
  Task        2 on host csky021 reporting.
  Task        3 on host csky021 reporting.
  Task        4 on host csky021 reporting.
  Task        5 on host csky021 reporting.
  Task        6 on host csky021 reporting.
  Task        7 on host csky021 reporting.

  Performing system and environment tests:
  | Environment variable OMP_NUM_THREADS correctly set to 1.
  | Stacksize not measured: no C compiler
  | Checking for scalapack...
  | Testing pdtran()...
  | All pdtran() tests passed.

  Obtaining array dimensions for all initial allocations:
  
  -----------------------------------------------------------------------
  Parsing control.in (first pass over file, find array dimensions only).
  The contents of control.in will be repeated verbatim below
  unless switched off by setting 'verbatim_writeout .false.' .
  in the first line of control.in .
  -----------------------------------------------------------------------
  
    xc               pbe
    spin             collinear
    default_initial_moment hund
    relativistic     atomic_zora scalar 1e-9
    occupation_type  gaussian 0.001
    charge        0
    vdw_correction_hirshfeld
    KS_method        scalapack_fast
    mixer            pulay
    charge_mix_param  0.4
    spin_mix_param    0.6
    sc_accuracy_rho  1E-4
    sc_accuracy_eev  1E-5
    sc_accuracy_etot 1E-5
    sc_iter_limit    100
    empty_states     10
  ################################################################################
  #
  #  FHI-aims code project
  # Volker Blum, Fritz Haber Institute Berlin, 2009
  #
  #  Suggested "tight" defaults for H atom (to be pasted into control.in file)
  #
  ################################################################################
    species        H
  #     global species definitions
      nucleus             1
      mass                1.00794
  #
      l_hartree           6
  #
      cut_pot             4.0  2.0  1.0
      basis_dep_cutoff    1e-4
  #
      radial_base         24 7.0
      radial_multiplier   2
      angular_grids       specified
        division   0.1930   50
        division   0.3175  110
        division   0.4293  194
        division   0.5066  302
        division   0.5626  434
  #      division   0.5922  590
  #      division   0.6227  974
  #      division   0.6868 1202
  #      outer_grid  770
        outer_grid  434
  ################################################################################
  #
  #  Definition of "minimal" basis
  #
  ################################################################################
  #     valence basis states
      valence      1  s   1.
  #     ion occupancy
      ion_occ      1  s   0.5
  ################################################################################
  #
  #  Suggested additional basis functions. For production calculations,
  #  uncomment them one after another (the most important basis functions are
  #  listed first).
  #
  #  Basis constructed for dimers: 0.5 A, 0.7 A, 1.0 A, 1.5 A, 2.5 A
  #
  ################################################################################
  #  "First tier" - improvements: -1014.90 meV to -62.69 meV
       hydro 2 s 2.1
       hydro 2 p 3.5
  #  "Second tier" - improvements: -12.89 meV to -1.83 meV
       hydro 1 s 0.85
       hydro 2 p 3.7
       hydro 2 s 1.2
       hydro 3 d 7
  #  "Third tier" - improvements: -0.25 meV to -0.12 meV
  #     hydro 4 f 11.2
  #     hydro 3 p 4.8
  #     hydro 4 d 9
  #     hydro 3 s 3.2
  ################################################################################
  #
  # For methods that use the localized form of the "resolution of identity" for
  # the two-electron Coulomb operator (RI_method LVL), particularly Hartree-Fock and
  # hybrid density functional calculations, the highest accuracy can be obtained by
  # uncommenting the line beginning with "for_aux"  below, thus adding an extra g radial
  # function to the construction of the product basis set for the expansion.
  # See Ref. New J. Phys. 17, 093020 (2015) for more information, particularly Figs. 1 and 6.
  #
  ################################################################################
  #
  # for_aux hydro 5 g 6.0
  
  -----------------------------------------------------------------------
  Completed first pass over input file control.in .
  -----------------------------------------------------------------------
  
  
  -----------------------------------------------------------------------
  Parsing geometry.in (first pass over file, find array dimensions only).
  The contents of geometry.in will be repeated verbatim below
  unless switched off by setting 'verbatim_writeout .false.' .
  in the first line of geometry.in .
  -----------------------------------------------------------------------
  
  atom 0 0 0 H
  atom 0 0 0.49 H
  
  -----------------------------------------------------------------------
  Completed first pass over input file geometry.in .
  -----------------------------------------------------------------------
  

  Basic array size parameters:
  | Number of species                 :        1
  | Number of atoms                   :        2
  | Max. basis fn. angular momentum   :        2
  | Max. atomic/ionic basis occupied n:        1
  | Max. number of basis fn. types    :        2
  | Max. radial fns per species/type  :        6
  | Max. logarithmic grid size        :     1131
  | Max. radial integration grid size :       49
  | Max. angular integration grid size:      434
  | Max. angular grid division number :        8
  | Radial grid for Hartree potential :     1131
  | Number of spin channels           :        2

------------------------------------------------------------
          Reading file control.in.
------------------------------------------------------------
  XC: Using PBE gradient-corrected functionals.
  Spin treatment: Spin density functional theory - collinear spins.
  Initial spin moment per atom set according to Hund's rules.
  Scalar relativistic treatment of kinetic energy: on-site free-atom approximation to ZORA.
  Occupation type: Gaussian broadening, width =   0.100000E-02 eV.
  Charge =   0.000000E+00: Neutral system requested explicitly.
  Using non-empirical van der Waals correction (Hirshfeld partitioning):
  Kohn-Sham eigenvalues and eigenfunctions calculated by the ELPA eigensolver library.
  Using pulay charge density mixing.
  Charge density mixing - mixing parameter:     0.4000
  Spin density mixing - mixing parameter:     0.6000
  Convergence accuracy of self-consistent charge density: 0.1000E-03
  Convergence accuracy of sum of eigenvalues: 0.1000E-04
  Convergence accuracy of total energy: 0.1000E-04
  Maximum number of s.-c. iterations  :   100
  Number of empty states per atom:       10
 
  Reading configuration options for species H                   .
  | Found nuclear charge :   1.0000
  | Found atomic mass :    1.00794000000000      amu
  | Found l_max for Hartree potential  :   6
  | Found cutoff potl. onset [A], width [A], scale factor :    4.00000    2.00000    1.00000
  | Threshold for basis-dependent cutoff potential is   0.100000E-03
  | Found data for basic radial integration grid :    24 points, outermost radius =    7.000 A
  | Found multiplier for basic radial grid :   2
  | Found angular grid specification: user-specified.
  | Specified grid contains     6 separate shells.
  | Check grid settings after all constraints further below.
  | Found free-atom valence shell :  1 s   1.000
  | No ionic wave fns used. Skipping ion_occ.
  | Found hydrogenic basis function :  2 s   2.100
  | Found hydrogenic basis function :  2 p   3.500
  | Found hydrogenic basis function :  1 s   0.850
  | Found hydrogenic basis function :  2 p   3.700
  | Found hydrogenic basis function :  2 s   1.200
  | Found hydrogenic basis function :  3 d   7.000
  Species H                   : Missing cutoff potential type.
  Defaulting to exp(1/x)/(1-x)^2 type cutoff potential.
  Species H : No 'logarithmic' tag. Using default grid for free atom:
  | Default logarithmic grid data [bohr] : 0.1000E-03 0.1000E+03 0.1012E+01
  Species H : On-site basis accuracy parameter (for Gram-Schmidt orthonormalisation) not specified.
  Using default value basis_acc =  0.1000000E-03.
  Species H                   : Using default innermost maximum threshold i_radial=  2 for radial functions.
  Species H                   : Default cutoff onset for free atom density etc. : 0.40000000E+01 AA.
  Species H                   : Basic radial grid will be enhanced according to radial_multiplier =   2, to contain    49 grid points.
 
  Finished reading input file 'control.in'. Consistency checks are next.
 
  Target number of points in a grid batch is not set. Defaulting to  100
  Method for grid partitioning is not set. Defaulting to parallel hash+maxmin partitioning.
  Batch size limit is not set. Defaulting to    200
  By default, will store active basis functions for each batch.
  If in need of memory, prune_basis_once .false. can be used to disable this option.
  communication_type for Hartree potential was not specified.
  Defaulting to calc_hartree .
  Pulay mixer: Number of relevant iterations not set.
  Defaulting to    8 iterations.
  Pulay mixer: Number of initial linear mixing iterations not set.
  Defaulting to    0 iterations.
  Work space size for distributed Hartree potential not set.
  Defaulting to   0.200000E+03 MB.
  Algorithm-dependent basis array size parameters:
  | n_max_pulay                         :        8
  Calculation of forces was not defined in control.in. No forces will be calculated.
  Geometry relaxation not requested: no relaxation will be performed.
  No accuracy limit for integral partition fn. given. Defaulting to 0.1000E-14.
  No threshold value for u(r) in integrations given. Defaulting to 0.1000E-05.
  No accuracy for occupation numbers given. Defaulting to 0.1000E-07.
  No threshold value for occupation numbers given. Defaulting to 0.0000E+00.
  No accuracy for fermi level given. Defaulting to 0.1000E-19.
  Maximum # of iterations to find E_F not set. Defaulting to  200.
  Will not use alltoall communication since running on < 1024 CPUs.
  Threshold for basis singularities not set.
  Default threshold for basis singularities: 0.1000E-04
  partition_type (choice of integration weights) for integrals was not specified.
  | Using a version of the partition function of Stratmann and coworkers ('stratmann_smoother').
  | At each grid point, the set of atoms used to build the partition table is smoothly restricted to
  | only those atoms whose free-atom density would be non-zero at that grid point.
  Partitioning for Hartree potential was not defined. Using partition_type for integrals.
  | Adjusted default value of keyword multip_moments_threshold to:       0.10000000E-11
  | This value may affect high angular momentum components of the Hartree potential in periodic systems.
  No q(lm)/r^(l+1) cutoff set for long-range Hartree potential.
  | Using default value of  0.100000E-09 .
  | Verify using the multipole_threshold keyword.
  Defaulting to new monopole extrapolation.
  Density update method: automatic selection selected.
------------------------------------------------------------


------------------------------------------------------------
          Reading geometry description geometry.in.
------------------------------------------------------------
  Input structure read successfully.
  The structure contains        2 atoms,  and a total of          2.000 electrons.

  Input geometry:
  | No unit cell requested.
  | Atomic structure:
  |       Atom                x [A]            y [A]            z [A]
  |    1: Species H              0.000000         0.000000         0.000000
  |    2: Species H              0.000000         0.000000         0.490000
  |

  | The smallest distance between any two atoms is         0.49000000 AA.
  |
  | The first atom of this pair is atom number                      1 .
  | The second atom of this pair is atom number                     2 .

  Initial moments and charges:
  |  Atom   Moment         Charge        Species
  |     1  (Hund's rule)   0.000000E+00   H
  |     2  (Hund's rule)   0.000000E+00   H

  Structure-dependent array size parameters: 
  | Number of distinct atom types in initial rho :        1
  | Maximum number of distinct radial functions  :        7
  | Maximum number of basis functions            :       30
  | Number of Kohn-Sham states (occupied + empty):       11
------------------------------------------------------------

------------------------------------------------------------
          Preparing all fixed parts of the calculation.
------------------------------------------------------------
  Determining machine precision:
    2.225073858507201E-308
  Setting up grids for atomic and cluster calculations.

  Creating wave function, potential, and density for free atoms.

  Species: H

  List of occupied orbitals and eigenvalues:
    n    l              occ      energy [Ha]    energy [eV]
    1    0           1.0000        -0.238386        -6.4868

  Spin-polarized or charged system:
  Charge density initialized according to selected moments and charges.

  Creating spin-polarized density from free atoms.

  Species: H
  Charge:   0.000000
  applying Hund's rules ...

  List of occupied orbitals and eigenvalues:
    n    l      energy [Ha]    energy [eV]    occupation
  Spin-up
    1    0        -0.278991        -7.5917     1.00000000
  Spin-down
    1    0         0.090850         2.4721     0.00000000

  Creating fixed part of basis set: Ionic, confined, hydrogenic.
 
  H                    hydrogenic:
 
  List of hydrogenic basis orbitals: 
    n    l      effective z      eigenvalue [eV]  inner max. [A]     outer max. [A]     outer radius [A]   
    2    0         2.100000       -14.9965           0.193243           1.317208           5.373006
    2    1         3.500000       -41.6672           0.602369           0.602369           4.056063
    1    0         0.850000        -9.8292           0.624871           0.624871           5.373006
    2    1         3.700000       -46.5653           0.573622           0.573622           3.910002
    2    0         1.200000        -4.5995           0.334980           2.228188           5.505995
    3    2         7.000000       -74.0753           0.680699           0.680699           3.769201
 

  Adding cutoff potential to free-atom effective potential.
  Creating atomic-like basis functions for current effective potential.

  Species H                   :

  List of atomic basis orbitals and eigenvalues:
    n    l      energy [Ha]    energy [eV]    outer radius [A]
    1    0        -0.238386        -6.4868       5.373006

  Assembling full basis from fixed parts.
  | Species H :   atomic orbital   1 s accepted.
  | Species H :    hydro orbital   2 s accepted.
  | Species H :    hydro orbital   1 s accepted.
  | Species H :    hydro orbital   2 s accepted.
  | Species H :    hydro orbital   2 p accepted.
  | Species H :    hydro orbital   2 p accepted.
  | Species H :    hydro orbital   3 d accepted.
 
  Basis size parameters after reduction:
  | Total number of radial functions:        7
  | Total number of basis functions :       30
 
  Testing on-site integration grid accuracy.
  |  Species  Function  <phi|h_atom|phi> (log., in eV)  <phi|h_atom|phi> (rad., in eV)
           1        1                 -6.4870767962                 -6.4871688290
           1        2                 13.5032046589                 13.5028982997
           1        3                 32.8195184817                 32.8119941656
           1        4                 33.8513856511                 33.7670005767 ***
           1        5                 28.8544614965                 28.8544615203
           1        6                 59.6326952547                 59.6327656460
           1        7                 60.2719308513                 60.2719305949
 * Note: Onsite integrals marked "***" above are less accurate than
 * onsite_accuracy_threshold =    0.03000 eV. Usually, this is harmless.
 * When in doubt, tighten the "radial" and/or "radial_multiplier" flags to check.

  Preparing densities etc. for the partition functions (integrals / Hartree potential).

  Preparations completed.
  max(cpu_time)          :      0.081 s.
  Wall clock time (cpu1) :      0.080 s.
------------------------------------------------------------

------------------------------------------------------------
          Begin self-consistency loop: Initialization.

          Date     :  20220120, Time     :  153759.933
------------------------------------------------------------

  Initializing index lists of integration centers etc. from given atomic structure:
  | Number of centers in hartree potential         :         2
  | Number of centers in hartree multipole         :         2
  | Number of centers in electron density summation:         2
  | Number of centers in basis integrals           :         2
  | Number of centers in integrals                 :         2
  Using modified Scalapack Eigenvalue solver (ELPA)
  * Using 8 tasks for Scalapack Eigenvalue solver.
  Detailed listing of tasks and assigned k-points:
  (for non-periodic systems, the "k-point" denotes an internal label only)
   Task     0 k-point     1 on csky021
   Task     1 k-point     1 on csky021
   Task     2 k-point     1 on csky021
   Task     3 k-point     1 on csky021
   Task     4 k-point     1 on csky021
   Task     5 k-point     1 on csky021
   Task     6 k-point     1 on csky021
   Task     7 k-point     1 on csky021
  Tasks:     8 split into      4 X      2 BLACS grid
  Calculating blocksize based on n_basis =           30 max_nprow =            4 max_npcol =            2
  Scalapack blocksize set to:            4
  Required Scalapack workspace - INTEGER:            1 REAL:             1
  Partitioning the integration grid into batches with parallel hashing+maxmin method.
  | Number of batches:      446
  | Maximal batch size:     197
  | Minimal batch size:      49
  | Average batch size:      64.798
  | Standard deviation of batch sizes:      18.018

  Integration load balanced across     8 MPI tasks.
  Work distribution over tasks is as follows:
  Task     0 has       3587 integration points.
  Task     1 has       3643 integration points.
  Task     2 has       3623 integration points.
  Task     3 has       3580 integration points.
  Task     4 has       3586 integration points.
  Task     5 has       3617 integration points.
  Task     6 has       3586 integration points.
  Task     7 has       3678 integration points.
  Initializing partition tables, free-atom densities, potentials, etc. across the integration grid (initialize_grid_storage).
  | initialize_grid_storage: Actual outermost partition radius vs. multipole_radius_free
  | (-- VB: in principle, multipole_radius_free should be larger, hence this output)
  | Species        1: outer_partition_radius =              6.000000000000000 AA, multipole_radius_free =              6.071692442739658 AA.
  | Original list of interatomic distances with           2 x          2 entries is created.
  | Net number of integration points:    28900
  | of which are non-zero points    :    25964
  Obtaining max. number of non-zero basis functions in each batch (get_n_compute_maxes).
  | Maximal number of non-zero basis functions:       30 in task     0
  | Maximal number of non-zero basis functions:       30 in task     1
  | Maximal number of non-zero basis functions:       30 in task     2
  | Maximal number of non-zero basis functions:       30 in task     3
  | Maximal number of non-zero basis functions:       30 in task     4
  | Maximal number of non-zero basis functions:       30 in task     5
  | Maximal number of non-zero basis functions:       30 in task     6
  | Maximal number of non-zero basis functions:       30 in task     7
  Selecting the method for density update.
  Loop over occupied states selected for charge density update.
  Integrating Hamiltonian matrix: batch-based integration.
  Time summed over all CPUs for integration: real work        0.080 s, elapsed        0.089 s
  Integrating overlap matrix.
  Time summed over all CPUs for integration: real work        0.021 s, elapsed        0.027 s
  Deallocating overlap matrix.

  Updating Kohn-Sham eigenvalues, eigenvectors, occupation numbers, and Fermi level.
  Solving generalized eigenproblem
  Solving real symmetric generalised eigenvalue problem by standard ScaLAPACK.
  Transforming overlap matrix with ScaLAPACK and checking for singularities.
  : Overlap matrix is nonsingular, using Cholesky decomposition
  | Lowest eigenvalue:  0.718540E-04
  Factoring overlap matrix with Cholesky decomposition
  Using Cholesky factor for transformation
  Using 1-stage real ELPA solver
  Solving real symmetric generalised eigenvalue problem by standard ScaLAPACK.
  Using Cholesky factor for transformation
  Using 1-stage real ELPA solver
  Determining occupation numbers for Kohn-Sham eigenstates.
  | Chemical potential (Fermi level) in eV                 : -.33293995E+00
  | Error in electron count due to remaining E_F inaccuracy: 0.00000000E+00
  | Maximum occupation number of highest empty state:  0.00E+00

  Writing Kohn-Sham eigenvalues.

  Spin-up eigenvalues:

  State    Occupation    Eigenvalue [Ha]    Eigenvalue [eV]
      1       1.00000          -0.738982          -20.10873
      2       1.00000          -0.013672           -0.37202
      3       0.00000          -0.002033           -0.05531
      4       0.00000           0.134087            3.64870
      5       0.00000           0.203227            5.53010
      6       0.00000           0.203227            5.53010
      7       0.00000           0.268053            7.29409
      8       0.00000           0.538874           14.66351
      9       0.00000           0.682406           18.56921
     10       0.00000           0.682406           18.56921
     11       0.00000           0.707764           19.25924

  Spin-down eigenvalues:

  State    Occupation    Eigenvalue [Ha]    Eigenvalue [eV]
      1       0.00000           0.099184            2.69894
      2       0.00000           0.112432            3.05942
      3       0.00000           0.503994           13.71438
      4       0.00000           0.527911           14.36518
      5       0.00000           1.143328           31.11155
      6       0.00000           1.186329           32.28167
      7       0.00000           1.186329           32.28167
      8       0.00000           1.443251           39.27285
      9       0.00000           1.443251           39.27285
     10       0.00000           1.552501           42.24571
     11       0.00000           1.586498           43.17080

  Current spin moment of the entire structure :
  | N = N_up - N_down :    2.00
  | S                 :    1.00
  | J                 :    3.00

  Highest occupied state (VBM) at     -0.37202315 eV
  | Occupation number:      1.00000000
  | Spin channel:        1

  Lowest unoccupied state (CBM) at    -0.05531438 eV
  | Occupation number:      0.00000000
  | Spin channel:        1

  Overall HOMO-LUMO gap:      0.31670877 eV.
  Calculating total energy contributions from superposition of free atom densities.

  Total energy components:
  | Sum of eigenvalues            :          -0.75265393 Ha         -20.48075543 eV
  | XC energy correction          :          -0.71369973 Ha         -19.42075776 eV
  | XC potential correction       :           0.92151626 Ha          25.07573325 eV
  | Free-atom electrostatic energy:          -0.02794020 Ha          -0.76029144 eV
  | Hartree energy correction     :           0.00000000 Ha           0.00000000 eV
  | van der Waals energy corr.    :           0.00000000 Ha           0.00000000 eV
  | Entropy correction            :           0.00000000 Ha           0.00000000 eV
  | ---------------------------
  | Total energy                  :          -0.57277760 Ha         -15.58607137 eV
  | Total energy, T -> 0          :          -0.57277760 Ha         -15.58607137 eV  <-- do not rely on this value for anything but (periodic) metals
  | Electronic free energy        :          -0.57277760 Ha         -15.58607137 eV

  Derived energy quantities:
  | Kinetic energy                :           1.28397445 Ha          34.93872239 eV
  | Electrostatic energy          :          -1.14305231 Ha         -31.10403601 eV
  | Energy correction for multipole
  | error in Hartree potential    :           0.00000000 Ha           0.00000000 eV
  | Sum of eigenvalues per atom                           :         -10.24037772 eV
  | Total energy (T->0) per atom                          :          -7.79303569 eV  <-- do not rely on this value for anything but (periodic) metals
  | Electronic free energy per atom                       :          -7.79303569 eV
  Initialize hartree_potential_storage
  Max. number of atoms included in rho_multipole:            2

  End scf initialization - timings             :  max(cpu_time)    wall_clock(cpu1)
  | Time for scf. initialization               :        0.041 s           0.041 s
  | Boundary condition initialization          :        0.000 s           0.001 s
  | Integration                                :        0.015 s           0.015 s
  | Solution of K.-S. eqns.                    :        0.007 s           0.007 s
  | Grid partitioning                          :        0.007 s           0.007 s
  | Preloading free-atom quantities on grid    :        0.004 s           0.004 s
  | Free-atom superposition energy             :        0.002 s           0.003 s
  | Total energy evaluation                    :        0.000 s           0.000 s
------------------------------------------------------------

------------------------------------------------------------
          Begin self-consistency iteration #    1

  Date     :  20220120, Time     :  153759.975
------------------------------------------------------------
  Evaluating new KS density.
  Integration grid: deviation in total charge (<rho> - N_e) =   1.235259E-06
  | <rho_up-rho_dn> = N_up-N_dn =      2.0000; <|rho_up-rho_dn|> =      2.2357
  Pulay mixing of updated and previous charge densities.

  Evaluating partitioned Hartree potential by multipole expansion.
  | Analytical far-field extrapolation by fixed multipoles:
  | Hartree multipole sum: apparent total charge =  -0.325470E-05
  Summing up the Hartree potential.
  Time summed over all CPUs for potential: real work        0.033 s, elapsed        0.034 s
  | RMS charge density error from multipole expansion :   0.828128E-03

  Integrating Hamiltonian matrix: batch-based integration.
  Time summed over all CPUs for integration: real work        0.067 s, elapsed        0.070 s

  Updating Kohn-Sham eigenvalues, eigenvectors, occupation numbers, and Fermi level.
  Solving generalized eigenproblem
  Solving real symmetric generalised eigenvalue problem by standard ScaLAPACK.
  Using Cholesky factor for transformation
  Using 1-stage real ELPA solver
  Solving real symmetric generalised eigenvalue problem by standard ScaLAPACK.
  Using Cholesky factor for transformation
  Using 1-stage real ELPA solver
  Determining occupation numbers for Kohn-Sham eigenstates.
  | Chemical potential (Fermi level) in eV                 : -.75503045E+01
  | Error in electron count due to remaining E_F inaccuracy: 0.00000000E+00
  | Maximum occupation number of highest empty state:  0.00E+00

  Writing Kohn-Sham eigenvalues.

  Spin-up eigenvalues:

  State    Occupation    Eigenvalue [Ha]    Eigenvalue [eV]
      1       1.00000          -0.578697          -15.74716
      2       0.00000           0.060714            1.65211
      3       0.00000           0.064501            1.75517
      4       0.00000           0.183408            4.99078
      5       0.00000           0.214442            5.83525
      6       0.00000           0.214442            5.83525
      7       0.00000           0.332373            9.04433
      8       0.00000           0.600633           16.34407
      9       0.00000           0.730604           19.88075
     10       0.00000           0.730604           19.88075
     11       0.00000           0.801369           21.80635

  Spin-down eigenvalues:

  State    Occupation    Eigenvalue [Ha]    Eigenvalue [eV]
      1       1.00000          -0.379210          -10.31882
      2       0.00000           0.076892            2.09233
      3       0.00000           0.087050            2.36876
      4       0.00000           0.245984            6.69358
      5       0.00000           0.323289            8.79714
      6       0.00000           0.323289            8.79714
      7       0.00000           0.383756           10.44254
      8       0.00000           0.709217           19.29877
      9       0.00000           0.810539           22.05590
     10       0.00000           0.810539           22.05590
     11       0.00000           0.874289           23.79061

  Current spin moment of the entire structure :
  | N = N_up - N_down :    0.00
  | S                 :    0.00
  | J                 :    1.00

  Highest occupied state (VBM) at    -10.31881836 eV
  | Occupation number:      1.00000000
  | Spin channel:        2

  Lowest unoccupied state (CBM) at     1.65210643 eV
  | Occupation number:      0.00000000
  | Spin channel:        1

  Overall HOMO-LUMO gap:     11.97092480 eV.

  Total energy components:
  | Sum of eigenvalues            :          -0.95790708 Ha         -26.06597788 eV
  | XC energy correction          :          -0.45671568 Ha         -12.42786593 eV
  | XC potential correction       :           0.58603207 Ha          15.94674411 eV
  | Free-atom electrostatic energy:          -0.02794020 Ha          -0.76029144 eV
  | Hartree energy correction     :           0.05244086 Ha           1.42698836 eV
  | van der Waals energy corr.    :           0.00000000 Ha           0.00000000 eV
  | Entropy correction            :           0.00000000 Ha           0.00000000 eV
  | ---------------------------
  | Total energy                  :          -0.80409002 Ha         -21.88040278 eV
  | Total energy, T -> 0          :          -0.80409002 Ha         -21.88040278 eV  <-- do not rely on this value for anything but (periodic) metals
  | Electronic free energy        :          -0.80409002 Ha         -21.88040278 eV

  Derived energy quantities:
  | Kinetic energy                :           0.86827551 Ha          23.62697876 eV
  | Electrostatic energy          :          -1.21564985 Ha         -33.07951560 eV
  | Energy correction for multipole
  | error in Hartree potential    :          -0.00009845 Ha          -0.00267893 eV
  | Sum of eigenvalues per atom                           :         -13.03298894 eV
  | Total energy (T->0) per atom                          :         -10.94020139 eV  <-- do not rely on this value for anything but (periodic) metals
  | Electronic free energy per atom                       :         -10.94020139 eV

  Self-consistency convergence accuracy:
  | Change of charge/spin density : 0.8752E-01 0.8752E-01
  | Change of sum of eigenvalues  : -.5585E+01 eV
  | Change of total energy        : -.6294E+01 eV

  End self-consistency iteration #     1       :  max(cpu_time)    wall_clock(cpu1)
  | Time for this iteration                    :        0.026 s           0.026 s
  | Charge density update                      :        0.007 s           0.006 s
  | Density mixing                             :        0.001 s           0.001 s
  | Hartree multipole update                   :        0.001 s           0.001 s
  | Hartree multipole summation                :        0.005 s           0.005 s
  | Integration                                :        0.009 s           0.009 s
  | Solution of K.-S. eqns.                    :        0.001 s           0.002 s
  | Total energy evaluation                    :        0.000 s           0.000 s
------------------------------------------------------------

------------------------------------------------------------
          Begin self-consistency iteration #    2

  Date     :  20220120, Time     :  153800.008
------------------------------------------------------------
  Evaluating new KS density.
  Integration grid: deviation in total charge (<rho> - N_e) =   7.411553E-07
  | <rho_up-rho_dn> = N_up-N_dn =     -2.0000; <|rho_up-rho_dn|> =      2.0000
  Pulay mixing of updated and previous charge densities.

  Evaluating partitioned Hartree potential by multipole expansion.
  | Analytical far-field extrapolation by fixed multipoles:
  | Hartree multipole sum: apparent total charge =  -0.313953E-05
  Summing up the Hartree potential.
  Time summed over all CPUs for potential: real work        0.033 s, elapsed        0.034 s
  | RMS charge density error from multipole expansion :   0.797657E-03

  Integrating Hamiltonian matrix: batch-based integration.
  Time summed over all CPUs for integration: real work        0.068 s, elapsed        0.072 s

  Updating Kohn-Sham eigenvalues, eigenvectors, occupation numbers, and Fermi level.
  Solving generalized eigenproblem
  Solving real symmetric generalised eigenvalue problem by standard ScaLAPACK.
  Using Cholesky factor for transformation
  Using 1-stage real ELPA solver
  Solving real symmetric generalised eigenvalue problem by standard ScaLAPACK.
  Using Cholesky factor for transformation
  Using 1-stage real ELPA solver
  Determining occupation numbers for Kohn-Sham eigenstates.
  | Chemical potential (Fermi level) in eV                 : -.11158290E+02
  | Error in electron count due to remaining E_F inaccuracy: 0.00000000E+00
  | Maximum occupation number of highest empty state:  0.00E+00

  Current spin moment of the entire structure :
  | N = N_up - N_down :    0.00
  | S                 :    0.00
  | J                 :    1.00

  Highest occupied state (VBM) at    -12.83396061 eV
  | Occupation number:      1.00000000
  | Spin channel:        2

  Lowest unoccupied state (CBM) at     1.27189935 eV
  | Occupation number:      0.00000000
  | Spin channel:        1

  Overall HOMO-LUMO gap:     14.10585996 eV.

  Total energy components:
  | Sum of eigenvalues            :          -1.21057924 Ha         -32.94153728 eV
  | XC energy correction          :          -0.60663098 Ha         -16.50726873 eV
  | XC potential correction       :           0.78246705 Ha          21.29201182 eV
  | Free-atom electrostatic energy:          -0.02794020 Ha          -0.76029144 eV
  | Hartree energy correction     :           0.04057955 Ha           1.10422566 eV
  | van der Waals energy corr.    :           0.00000000 Ha           0.00000000 eV
  | Entropy correction            :           0.00000000 Ha           0.00000000 eV
  | ---------------------------
  | Total energy                  :          -1.02210382 Ha         -27.81285997 eV
  | Total energy, T -> 0          :          -1.02210382 Ha         -27.81285997 eV  <-- do not rely on this value for anything but (periodic) metals
  | Electronic free energy        :          -1.02210382 Ha         -27.81285997 eV

  Derived energy quantities:
  | Kinetic energy                :           0.81636481 Ha          22.21441665 eV
  | Electrostatic energy          :          -1.23183765 Ha         -33.52000789 eV
  | Energy correction for multipole
  | error in Hartree potential    :          -0.00008902 Ha          -0.00242223 eV
  | Sum of eigenvalues per atom                           :         -16.47076864 eV
  | Total energy (T->0) per atom                          :         -13.90642998 eV  <-- do not rely on this value for anything but (periodic) metals
  | Electronic free energy per atom                       :         -13.90642998 eV

  Self-consistency convergence accuracy:
  | Change of charge/spin density : 0.1477E+00 0.3208E+00
  | Change of sum of eigenvalues  : -.6876E+01 eV
  | Change of total energy        : -.5932E+01 eV

  End self-consistency iteration #     2       :  max(cpu_time)    wall_clock(cpu1)
  | Time for this iteration                    :        0.031 s           0.024 s
  | Charge density update                      :        0.013 s           0.005 s
  | Density mixing                             :        0.001 s           0.001 s
  | Hartree multipole update                   :        0.001 s           0.002 s
  | Hartree multipole summation                :        0.004 s           0.004 s
  | Integration                                :        0.009 s           0.009 s
  | Solution of K.-S. eqns.                    :        0.001 s           0.002 s
  | Total energy evaluation                    :        0.000 s           0.001 s
------------------------------------------------------------

------------------------------------------------------------
          Begin self-consistency iteration #    3

  Date     :  20220120, Time     :  153800.038
------------------------------------------------------------
  Evaluating new KS density.
  Integration grid: deviation in total charge (<rho> - N_e) =   7.160670E-07
  | <rho_up-rho_dn> = N_up-N_dn =     -1.8984; <|rho_up-rho_dn|> =      1.8984
  Pulay mixing of updated and previous charge densities.

  Evaluating partitioned Hartree potential by multipole expansion.
  | Analytical far-field extrapolation by fixed multipoles:
  | Hartree multipole sum: apparent total charge =  -0.337724E-05
  Summing up the Hartree potential.
  Time summed over all CPUs for potential: real work        0.033 s, elapsed        0.033 s
  | RMS charge density error from multipole expansion :   0.698440E-03

  Integrating Hamiltonian matrix: batch-based integration.
  Time summed over all CPUs for integration: real work        0.066 s, elapsed        0.071 s

  Updating Kohn-Sham eigenvalues, eigenvectors, occupation numbers, and Fermi level.
  Solving generalized eigenproblem
  Solving real symmetric generalised eigenvalue problem by standard ScaLAPACK.
  Using Cholesky factor for transformation
  Using 1-stage real ELPA solver
  Solving real symmetric generalised eigenvalue problem by standard ScaLAPACK.
  Using Cholesky factor for transformation
  Using 1-stage real ELPA solver
  Determining occupation numbers for Kohn-Sham eigenstates.
  | Chemical potential (Fermi level) in eV                 : -.88852438E+01
  | Error in electron count due to remaining E_F inaccuracy: 0.00000000E+00
  | Maximum occupation number of highest empty state:  0.00E+00

  Current spin moment of the entire structure :
  | N = N_up - N_down :    0.00
  | S                 :    0.00
  | J                 :    1.00

  Highest occupied state (VBM) at    -11.46353141 eV
  | Occupation number:      1.00000000
  | Spin channel:        2

  Lowest unoccupied state (CBM) at     1.37081560 eV
  | Occupation number:      0.00000000
  | Spin channel:        1

  Overall HOMO-LUMO gap:     12.83434701 eV.

  Total energy components:
  | Sum of eigenvalues            :          -1.05519075 Ha         -28.71320120 eV
  | XC energy correction          :          -0.50951184 Ha         -13.86452251 eV
  | XC potential correction       :           0.65511627 Ha          17.82662068 eV
  | Free-atom electrostatic energy:          -0.02794020 Ha          -0.76029144 eV
  | Hartree energy correction     :           0.06079245 Ha           1.65424664 eV
  | van der Waals energy corr.    :           0.00000000 Ha           0.00000000 eV
  | Entropy correction            :           0.00000000 Ha           0.00000000 eV
  | ---------------------------
  | Total energy                  :          -0.87673407 Ha         -23.85714783 eV
  | Total energy, T -> 0          :          -0.87673407 Ha         -23.85714783 eV  <-- do not rely on this value for anything but (periodic) metals
  | Electronic free energy        :          -0.87673407 Ha         -23.85714783 eV

  Derived energy quantities:
  | Kinetic energy                :           0.81341813 Ha          22.13423338 eV
  | Electrostatic energy          :          -1.18064036 Ha         -32.12685870 eV
  | Energy correction for multipole
  | error in Hartree potential    :          -0.00007894 Ha          -0.00214813 eV
  | Sum of eigenvalues per atom                           :         -14.35660060 eV
  | Total energy (T->0) per atom                          :         -11.92857392 eV  <-- do not rely on this value for anything but (periodic) metals
  | Electronic free energy per atom                       :         -11.92857392 eV

  Self-consistency convergence accuracy:
  | Change of charge/spin density : 0.2431E+00 0.2833E+00
  | Change of sum of eigenvalues  : 0.4228E+01 eV
  | Change of total energy        : 0.3956E+01 eV

  End self-consistency iteration #     3       :  max(cpu_time)    wall_clock(cpu1)
  | Time for this iteration                    :        0.026 s           0.025 s
  | Charge density update                      :        0.007 s           0.006 s
  | Density mixing                             :        0.001 s           0.001 s
  | Hartree multipole update                   :        0.001 s           0.002 s
  | Hartree multipole summation                :        0.004 s           0.004 s
  | Integration                                :        0.009 s           0.009 s
  | Solution of K.-S. eqns.                    :        0.001 s           0.002 s
  | Total energy evaluation                    :        0.000 s           0.001 s
------------------------------------------------------------

------------------------------------------------------------
          Begin self-consistency iteration #    4

  Date     :  20220120, Time     :  153800.067
------------------------------------------------------------
  Evaluating new KS density.
  Integration grid: deviation in total charge (<rho> - N_e) =   7.251499E-07
  | <rho_up-rho_dn> = N_up-N_dn =     -1.9281; <|rho_up-rho_dn|> =      1.9281
  Pulay mixing of updated and previous charge densities.

  Evaluating partitioned Hartree potential by multipole expansion.
  | Analytical far-field extrapolation by fixed multipoles:
  | Hartree multipole sum: apparent total charge =  -0.580920E-05
  Summing up the Hartree potential.
  Time summed over all CPUs for potential: real work        0.033 s, elapsed        0.033 s
  | RMS charge density error from multipole expansion :   0.183071E-02

  Integrating Hamiltonian matrix: batch-based integration.
  Time summed over all CPUs for integration: real work        0.067 s, elapsed        0.071 s

  Updating Kohn-Sham eigenvalues, eigenvectors, occupation numbers, and Fermi level.
  Solving generalized eigenproblem
  Solving real symmetric generalised eigenvalue problem by standard ScaLAPACK.
  Using Cholesky factor for transformation
  Using 1-stage real ELPA solver
  Solving real symmetric generalised eigenvalue problem by standard ScaLAPACK.
  Using Cholesky factor for transformation
  Using 1-stage real ELPA solver
  Determining occupation numbers for Kohn-Sham eigenstates.
  | Chemical potential (Fermi level) in eV                 : -.99334003E+01
  | Error in electron count due to remaining E_F inaccuracy: 0.00000000E+00
  | Maximum occupation number of highest empty state:  0.00E+00

  Current spin moment of the entire structure :
  | N = N_up - N_down :    0.00
  | S                 :    0.00
  | J                 :    1.00

  Highest occupied state (VBM) at    -15.05572633 eV
  | Occupation number:      1.00000000
  | Spin channel:        2

  Lowest unoccupied state (CBM) at    -0.00794389 eV
  | Occupation number:      0.00000000
  | Spin channel:        1

  Overall HOMO-LUMO gap:     15.04778244 eV.

  Total energy components:
  | Sum of eigenvalues            :          -1.21107271 Ha         -32.95496510 eV
  | XC energy correction          :          -0.49806894 Ha         -13.55314549 eV
  | XC potential correction       :           0.64067998 Ha          17.43378926 eV
  | Free-atom electrostatic energy:          -0.02794020 Ha          -0.76029144 eV
  | Hartree energy correction     :           0.17345139 Ha           4.71985236 eV
  | van der Waals energy corr.    :           0.00000000 Ha           0.00000000 eV
  | Entropy correction            :           0.00000000 Ha           0.00000000 eV
  | ---------------------------
  | Total energy                  :          -0.92295048 Ha         -25.11476040 eV
  | Total energy, T -> 0          :          -0.92295048 Ha         -25.11476040 eV  <-- do not rely on this value for anything but (periodic) metals
  | Electronic free energy        :          -0.92295048 Ha         -25.11476040 eV

  Derived energy quantities:
  | Kinetic energy                :           0.13961739 Ha           3.79918250 eV
  | Electrostatic energy          :          -0.56449893 Ha         -15.36079742 eV
  | Energy correction for multipole
  | error in Hartree potential    :           0.00018672 Ha           0.00508103 eV
  | Sum of eigenvalues per atom                           :         -16.47748255 eV
  | Total energy (T->0) per atom                          :         -12.55738020 eV  <-- do not rely on this value for anything but (periodic) metals
  | Electronic free energy per atom                       :         -12.55738020 eV

  Self-consistency convergence accuracy:
  | Change of charge/spin density : 0.1825E+00 0.2995E+00
  | Change of sum of eigenvalues  : -.4242E+01 eV
  | Change of total energy        : -.1258E+01 eV

  End self-consistency iteration #     4       :  max(cpu_time)    wall_clock(cpu1)
  | Time for this iteration                    :        0.026 s           0.027 s
  | Charge density update                      :        0.007 s           0.008 s
  | Density mixing                             :        0.001 s           0.001 s
  | Hartree multipole update                   :        0.001 s           0.002 s
  | Hartree multipole summation                :        0.004 s           0.004 s
  | Integration                                :        0.009 s           0.009 s
  | Solution of K.-S. eqns.                    :        0.001 s           0.002 s
  | Total energy evaluation                    :        0.000 s           0.001 s
------------------------------------------------------------

------------------------------------------------------------
          Begin self-consistency iteration #    5

  Date     :  20220120, Time     :  153800.099
------------------------------------------------------------
  Evaluating new KS density.
  Integration grid: deviation in total charge (<rho> - N_e) =   6.052006E-07
  | <rho_up-rho_dn> = N_up-N_dn =     -1.4735; <|rho_up-rho_dn|> =      1.4735
  Pulay mixing of updated and previous charge densities.

  Evaluating partitioned Hartree potential by multipole expansion.
  | Analytical far-field extrapolation by fixed multipoles:
  | Hartree multipole sum: apparent total charge =  -0.144007E-04
  Summing up the Hartree potential.
  Time summed over all CPUs for potential: real work        0.033 s, elapsed        0.033 s
  | RMS charge density error from multipole expansion :   0.903107E-02

  Integrating Hamiltonian matrix: batch-based integration.
  Time summed over all CPUs for integration: real work        0.069 s, elapsed        0.074 s

  Updating Kohn-Sham eigenvalues, eigenvectors, occupation numbers, and Fermi level.
  Solving generalized eigenproblem
  Solving real symmetric generalised eigenvalue problem by standard ScaLAPACK.
  Using Cholesky factor for transformation
  Using 1-stage real ELPA solver
  Solving real symmetric generalised eigenvalue problem by standard ScaLAPACK.
  Using Cholesky factor for transformation
  Using 1-stage real ELPA solver
  Determining occupation numbers for Kohn-Sham eigenstates.
  | Chemical potential (Fermi level) in eV                 : -.27130059E+02
  | Error in electron count due to remaining E_F inaccuracy: 0.00000000E+00
  | Maximum occupation number of highest empty state:  0.00E+00

  Current spin moment of the entire structure :
  | N = N_up - N_down :    0.00
  | S                 :    0.00
  | J                 :    1.00

  Highest occupied state (VBM) at    -29.37531633 eV
  | Occupation number:      1.00000000
  | Spin channel:        2

  Lowest unoccupied state (CBM) at    -3.07311724 eV
  | Occupation number:      0.00000000
  | Spin channel:        1

  Overall HOMO-LUMO gap:     26.30219910 eV.

  Total energy components:
  | Sum of eigenvalues            :          -2.20240712 Ha         -59.93054705 eV
  | XC energy correction          :          -0.79310859 Ha         -21.58158280 eV
  | XC potential correction       :           1.02005311 Ha          27.75705739 eV
  | Free-atom electrostatic energy:          -0.02794020 Ha          -0.76029144 eV
  | Hartree energy correction     :           0.02966177 Ha           0.80713794 eV
  | van der Waals energy corr.    :           0.00000000 Ha           0.00000000 eV
  | Entropy correction            :           0.00000000 Ha           0.00000000 eV
  | ---------------------------
  | Total energy                  :          -1.97374103 Ha         -53.70822596 eV
  | Total energy, T -> 0          :          -1.97374103 Ha         -53.70822596 eV  <-- do not rely on this value for anything but (periodic) metals
  | Electronic free energy        :          -1.97374103 Ha         -53.70822596 eV

  Derived energy quantities:
  | Kinetic energy                :          -3.33195244 Ha         -90.66703906 eV
  | Electrostatic energy          :           2.15132001 Ha          58.54039590 eV
  | Energy correction for multipole
  | error in Hartree potential    :           0.00100789 Ha           0.02742607 eV
  | Sum of eigenvalues per atom                           :         -29.96527352 eV
  | Total energy (T->0) per atom                          :         -26.85411298 eV  <-- do not rely on this value for anything but (periodic) metals
  | Electronic free energy per atom                       :         -26.85411298 eV

  Self-consistency convergence accuracy:
  | Change of charge/spin density : 0.3967E+00 0.2056E+00
  | Change of sum of eigenvalues  : -.2698E+02 eV
  | Change of total energy        : -.2859E+02 eV

  End self-consistency iteration #     5       :  max(cpu_time)    wall_clock(cpu1)
  | Time for this iteration                    :        0.026 s           0.025 s
  | Charge density update                      :        0.007 s           0.005 s
  | Density mixing                             :        0.001 s           0.002 s
  | Hartree multipole update                   :        0.001 s           0.001 s
  | Hartree multipole summation                :        0.004 s           0.005 s
  | Integration                                :        0.009 s           0.009 s
  | Solution of K.-S. eqns.                    :        0.001 s           0.002 s
  | Total energy evaluation                    :        0.000 s           0.001 s
------------------------------------------------------------

------------------------------------------------------------
          Begin self-consistency iteration #    6

  Date     :  20220120, Time     :  153800.129
------------------------------------------------------------
  Evaluating new KS density.
  Integration grid: deviation in total charge (<rho> - N_e) =   3.654789E-07
  | <rho_up-rho_dn> = N_up-N_dn =     -0.6916; <|rho_up-rho_dn|> =      1.3573
  Pulay mixing of updated and previous charge densities.

  Evaluating partitioned Hartree potential by multipole expansion.
  | Analytical far-field extrapolation by fixed multipoles:
  | Hartree multipole sum: apparent total charge =  -0.379745E-04
  Summing up the Hartree potential.
  Time summed over all CPUs for potential: real work        0.034 s, elapsed        0.036 s
  | RMS charge density error from multipole expansion :   0.274268E-01

  Integrating Hamiltonian matrix: batch-based integration.
  Time summed over all CPUs for integration: real work        0.071 s, elapsed        0.075 s

  Updating Kohn-Sham eigenvalues, eigenvectors, occupation numbers, and Fermi level.
  Solving generalized eigenproblem
  Solving real symmetric generalised eigenvalue problem by standard ScaLAPACK.
  Using Cholesky factor for transformation
  Using 1-stage real ELPA solver
  Solving real symmetric generalised eigenvalue problem by standard ScaLAPACK.
  Using Cholesky factor for transformation
  Using 1-stage real ELPA solver
  Determining occupation numbers for Kohn-Sham eigenstates.
  | Chemical potential (Fermi level) in eV                 : -.81789293E+02
  | Error in electron count due to remaining E_F inaccuracy: 0.00000000E+00
  | Maximum occupation number of highest empty state:  0.00E+00

  Current spin moment of the entire structure :
  | N = N_up - N_down :    0.00
  | S                 :    0.00
  | J                 :    1.00

  Highest occupied state (VBM) at    -88.42361372 eV
  | Occupation number:      1.00000000
  | Spin channel:        2

  Lowest unoccupied state (CBM) at   -27.04246048 eV
  | Occupation number:      0.00000000
  | Spin channel:        1

  Overall HOMO-LUMO gap:     61.38115324 eV.

  Total energy components:
  | Sum of eigenvalues            :          -6.51538866 Ha        -177.29274612 eV
  | XC energy correction          :          -1.85207369 Ha         -50.39748924 eV
  | XC potential correction       :           2.39199606 Ha          65.08952439 eV
  | Free-atom electrostatic energy:          -0.02794020 Ha          -0.76029144 eV
  | Hartree energy correction     :          -4.88330495 Ha        -132.88148853 eV
  | van der Waals energy corr.    :           0.00000000 Ha           0.00000000 eV
  | Entropy correction            :           0.00000000 Ha           0.00000000 eV
  | ---------------------------
  | Total energy                  :         -10.88671144 Ha        -296.24249094 eV
  | Total energy, T -> 0          :         -10.88671144 Ha        -296.24249094 eV  <-- do not rely on this value for anything but (periodic) metals
  | Electronic free energy        :         -10.88671144 Ha        -296.24249094 eV

  Derived energy quantities:
  | Kinetic energy                :         -23.21812174 Ha        -631.79723807 eV
  | Electrostatic energy          :          14.18348399 Ha         385.95223638 eV
  | Energy correction for multipole
  | error in Hartree potential    :           0.00295093 Ha           0.08029877 eV
  | Sum of eigenvalues per atom                           :         -88.64637306 eV
  | Total energy (T->0) per atom                          :        -148.12124547 eV  <-- do not rely on this value for anything but (periodic) metals
  | Electronic free energy per atom                       :        -148.12124547 eV

  Self-consistency convergence accuracy:
  | Change of charge/spin density : 0.1348E+01 0.3610E+00
  | Change of sum of eigenvalues  : -.1174E+03 eV
  | Change of total energy        : -.2425E+03 eV

  End self-consistency iteration #     6       :  max(cpu_time)    wall_clock(cpu1)
  | Time for this iteration                    :        0.028 s           0.026 s
  | Charge density update                      :        0.007 s           0.006 s
  | Density mixing                             :        0.002 s           0.002 s
  | Hartree multipole update                   :        0.001 s           0.001 s
  | Hartree multipole summation                :        0.005 s           0.005 s
  | Integration                                :        0.010 s           0.010 s
  | Solution of K.-S. eqns.                    :        0.001 s           0.001 s
  | Total energy evaluation                    :        0.000 s           0.000 s
------------------------------------------------------------

------------------------------------------------------------
          Begin self-consistency iteration #    7

  Date     :  20220120, Time     :  153800.158
------------------------------------------------------------
  Evaluating new KS density.
  Integration grid: deviation in total charge (<rho> - N_e) =   2.302438E-07
  | <rho_up-rho_dn> = N_up-N_dn =     -0.3326; <|rho_up-rho_dn|> =      3.2313
  Pulay mixing of updated and previous charge densities.

  Evaluating partitioned Hartree potential by multipole expansion.
  | Analytical far-field extrapolation by fixed multipoles:
  | Hartree multipole sum: apparent total charge =  -0.288397E-04
  Summing up the Hartree potential.
  Time summed over all CPUs for potential: real work        0.033 s, elapsed        0.033 s
  | RMS charge density error from multipole expansion :   0.206994E-01

  Integrating Hamiltonian matrix: batch-based integration.
  Time summed over all CPUs for integration: real work        0.070 s, elapsed        0.075 s

  Updating Kohn-Sham eigenvalues, eigenvectors, occupation numbers, and Fermi level.
  Solving generalized eigenproblem
  Solving real symmetric generalised eigenvalue problem by standard ScaLAPACK.
  Using Cholesky factor for transformation
  Using 1-stage real ELPA solver
  Solving real symmetric generalised eigenvalue problem by standard ScaLAPACK.
  Using Cholesky factor for transformation
  Using 1-stage real ELPA solver
  Determining occupation numbers for Kohn-Sham eigenstates.
  | Chemical potential (Fermi level) in eV                 : -.58798282E+02
  | Error in electron count due to remaining E_F inaccuracy: 0.00000000E+00
  | Maximum occupation number of highest empty state:  0.00E+00

  Current spin moment of the entire structure :
  | N = N_up - N_down :    0.00
  | S                 :    0.00
  | J                 :    1.00

  Highest occupied state (VBM) at    -63.69014959 eV
  | Occupation number:      1.00000000
  | Spin channel:        2

  Lowest unoccupied state (CBM) at   -14.23868026 eV
  | Occupation number:      0.00000000
  | Spin channel:        1

  Overall HOMO-LUMO gap:     49.45146933 eV.

  Total energy components:
  | Sum of eigenvalues            :          -4.70481515 Ha        -128.02453415 eV
  | XC energy correction          :          -1.41539156 Ha         -38.51476400 eV
  | XC potential correction       :           1.82562273 Ha          49.67772207 eV
  | Free-atom electrostatic energy:          -0.02794020 Ha          -0.76029144 eV
  | Hartree energy correction     :          -2.23188757 Ha         -60.73275083 eV
  | van der Waals energy corr.    :           0.00000000 Ha           0.00000000 eV
  | Entropy correction            :           0.00000000 Ha           0.00000000 eV
  | ---------------------------
  | Total energy                  :          -6.55441175 Ha        -178.35461835 eV
  | Total energy, T -> 0          :          -6.55441175 Ha        -178.35461835 eV  <-- do not rely on this value for anything but (periodic) metals
  | Electronic free energy        :          -6.55441175 Ha        -178.35461835 eV

  Derived energy quantities:
  | Kinetic energy                :         -13.96878603 Ha        -380.11000759 eV
  | Electrostatic energy          :           8.82976584 Ha         240.27015324 eV
  | Energy correction for multipole
  | error in Hartree potential    :           0.00227837 Ha           0.06199773 eV
  | Sum of eigenvalues per atom                           :         -64.01226708 eV
  | Total energy (T->0) per atom                          :         -89.17730917 eV  <-- do not rely on this value for anything but (periodic) metals
  | Electronic free energy per atom                       :         -89.17730917 eV

  Self-consistency convergence accuracy:
  | Change of charge/spin density : 0.3670E+01 0.1238E+01
  | Change of sum of eigenvalues  : 0.4927E+02 eV
  | Change of total energy        : 0.1179E+03 eV

  End self-consistency iteration #     7       :  max(cpu_time)    wall_clock(cpu1)
  | Time for this iteration                    :        0.026 s           0.026 s
  | Charge density update                      :        0.006 s           0.006 s
  | Density mixing                             :        0.002 s           0.002 s
  | Hartree multipole update                   :        0.001 s           0.002 s
  | Hartree multipole summation                :        0.004 s           0.004 s
  | Integration                                :        0.009 s           0.010 s
  | Solution of K.-S. eqns.                    :        0.001 s           0.001 s
  | Total energy evaluation                    :        0.000 s           0.000 s
------------------------------------------------------------

------------------------------------------------------------
          Begin self-consistency iteration #    8

  Date     :  20220120, Time     :  153800.189
------------------------------------------------------------
  Evaluating new KS density.
  Integration grid: deviation in total charge (<rho> - N_e) =   2.410050E-07
  | <rho_up-rho_dn> = N_up-N_dn =     -0.4148; <|rho_up-rho_dn|> =      2.5178
  Pulay mixing of updated and previous charge densities.

  Evaluating partitioned Hartree potential by multipole expansion.
  | Analytical far-field extrapolation by fixed multipoles:
  | Hartree multipole sum: apparent total charge =  -0.170997E-04
  Summing up the Hartree potential.
  Time summed over all CPUs for potential: real work        0.033 s, elapsed        0.034 s
  | RMS charge density error from multipole expansion :   0.129494E-01

  Integrating Hamiltonian matrix: batch-based integration.
  Time summed over all CPUs for integration: real work        0.070 s, elapsed        0.075 s

  Updating Kohn-Sham eigenvalues, eigenvectors, occupation numbers, and Fermi level.
  Solving generalized eigenproblem
  Solving real symmetric generalised eigenvalue problem by standard ScaLAPACK.
  Using Cholesky factor for transformation
  Using 1-stage real ELPA solver
  Solving real symmetric generalised eigenvalue problem by standard ScaLAPACK.
  Using Cholesky factor for transformation
  Using 1-stage real ELPA solver
  Determining occupation numbers for Kohn-Sham eigenstates.
  | Chemical potential (Fermi level) in eV                 : -.33768923E+02
  | Error in electron count due to remaining E_F inaccuracy: 0.00000000E+00
  | Maximum occupation number of highest empty state:  0.00E+00

  Current spin moment of the entire structure :
  | N = N_up - N_down :    0.00
  | S                 :    0.00
  | J                 :    1.00

  Highest occupied state (VBM) at    -36.70929606 eV
  | Occupation number:      1.00000000
  | Spin channel:        2

  Lowest unoccupied state (CBM) at    -4.51967889 eV
  | Occupation number:      0.00000000
  | Spin channel:        1

  Overall HOMO-LUMO gap:     32.18961717 eV.

  Total energy components:
  | Sum of eigenvalues            :          -2.73246907 Ha         -74.35426642 eV
  | XC energy correction          :          -0.98115636 Ha         -26.69862287 eV
  | XC potential correction       :           1.26315200 Ha          34.37211481 eV
  | Free-atom electrostatic energy:          -0.02794020 Ha          -0.76029144 eV
  | Hartree energy correction     :          -0.36653934 Ha          -9.97404289 eV
  | van der Waals energy corr.    :           0.00000000 Ha           0.00000000 eV
  | Entropy correction            :           0.00000000 Ha           0.00000000 eV
  | ---------------------------
  | Total energy                  :          -2.84495296 Ha         -77.41510880 eV
  | Total energy, T -> 0          :          -2.84495296 Ha         -77.41510880 eV  <-- do not rely on this value for anything but (periodic) metals
  | Electronic free energy        :          -2.84495296 Ha         -77.41510880 eV

  Derived energy quantities:
  | Kinetic energy                :          -5.52249750 Ha        -150.27480297 eV
  | Electrostatic energy          :           3.65870090 Ha          99.55831704 eV
  | Energy correction for multipole
  | error in Hartree potential    :           0.00158247 Ha           0.04306114 eV
  | Sum of eigenvalues per atom                           :         -37.17713321 eV
  | Total energy (T->0) per atom                          :         -38.70755440 eV  <-- do not rely on this value for anything but (periodic) metals
  | Electronic free energy per atom                       :         -38.70755440 eV

  Self-consistency convergence accuracy:
  | Change of charge/spin density : 0.2860E+01 0.9302E+00
  | Change of sum of eigenvalues  : 0.5367E+02 eV
  | Change of total energy        : 0.1009E+03 eV

  End self-consistency iteration #     8       :  max(cpu_time)    wall_clock(cpu1)
  | Time for this iteration                    :        0.026 s           0.025 s
  | Charge density update                      :        0.006 s           0.005 s
  | Density mixing                             :        0.002 s           0.002 s
  | Hartree multipole update                   :        0.001 s           0.002 s
  | Hartree multipole summation                :        0.004 s           0.004 s
  | Integration                                :        0.010 s           0.010 s
  | Solution of K.-S. eqns.                    :        0.001 s           0.001 s
  | Total energy evaluation                    :        0.000 s           0.000 s
------------------------------------------------------------

------------------------------------------------------------
          Begin self-consistency iteration #    9

  Date     :  20220120, Time     :  153800.218
------------------------------------------------------------
  Evaluating new KS density.
  Integration grid: deviation in total charge (<rho> - N_e) =   1.584446E-07
  | <rho_up-rho_dn> = N_up-N_dn =     -0.2074; <|rho_up-rho_dn|> =      1.6302
  Pulay mixing of updated and previous charge densities.

  Evaluating partitioned Hartree potential by multipole expansion.
  | Analytical far-field extrapolation by fixed multipoles:
  | Hartree multipole sum: apparent total charge =   0.120471E-04
  Summing up the Hartree potential.
  Time summed over all CPUs for potential: real work        0.032 s, elapsed        0.033 s
  | RMS charge density error from multipole expansion :   0.770072E-02

  Integrating Hamiltonian matrix: batch-based integration.
  Time summed over all CPUs for integration: real work        0.062 s, elapsed        0.065 s

  Updating Kohn-Sham eigenvalues, eigenvectors, occupation numbers, and Fermi level.
  Solving generalized eigenproblem
  Solving real symmetric generalised eigenvalue problem by standard ScaLAPACK.
  Using Cholesky factor for transformation
  Using 1-stage real ELPA solver
  Solving real symmetric generalised eigenvalue problem by standard ScaLAPACK.
  Using Cholesky factor for transformation
  Using 1-stage real ELPA solver
  Determining occupation numbers for Kohn-Sham eigenstates.
  | Chemical potential (Fermi level) in eV                 : 0.26952893E+01
  | Error in electron count due to remaining E_F inaccuracy: 0.00000000E+00
  | Maximum occupation number of highest empty state:  0.00E+00

  Current spin moment of the entire structure :
  | N = N_up - N_down :    0.00
  | S                 :    0.00
  | J                 :    1.00

  Highest occupied state (VBM) at      0.73062351 eV
  | Occupation number:      1.00000000
  | Spin channel:        2
 * WARNING: The VBM is higher than the internal energy zero!

  Lowest unoccupied state (CBM) at     2.75554681 eV
  | Occupation number:      0.00000000
  | Spin channel:        1

  Overall HOMO-LUMO gap:      2.02492331 eV.

  Total energy components:
  | Sum of eigenvalues            :           0.04968480 Ha           1.35199221 eV
  | XC energy correction          :          -1.61013345 Ha         -43.81396042 eV
  | XC potential correction       :           2.07718447 Ha          56.52306530 eV
  | Free-atom electrostatic energy:          -0.02794020 Ha          -0.76029144 eV
  | Hartree energy correction     :          -2.12540165 Ha         -57.83512146 eV
  | van der Waals energy corr.    :           0.00000000 Ha           0.00000000 eV
  | Entropy correction            :           0.00000000 Ha           0.00000000 eV
  | ---------------------------
  | Total energy                  :          -1.63660602 Ha         -44.53431580 eV
  | Total energy, T -> 0          :          -1.63660602 Ha         -44.53431580 eV  <-- do not rely on this value for anything but (periodic) metals
  | Electronic free energy        :          -1.63660602 Ha         -44.53431580 eV

  Derived energy quantities:
  | Kinetic energy                :           2.86763703 Ha          78.03237393 eV
  | Electrostatic energy          :          -2.89410961 Ha         -78.75272931 eV
  | Energy correction for multipole
  | error in Hartree potential    :          -0.00013422 Ha          -0.00365234 eV
  | Sum of eigenvalues per atom                           :           0.67599611 eV
  | Total energy (T->0) per atom                          :         -22.26715790 eV  <-- do not rely on this value for anything but (periodic) metals
  | Electronic free energy per atom                       :         -22.26715790 eV

  Self-consistency convergence accuracy:
  | Change of charge/spin density : 0.1797E+01 0.6258E+00
  | Change of sum of eigenvalues  : 0.7571E+02 eV
  | Change of total energy        : 0.3288E+02 eV

  End self-consistency iteration #     9       :  max(cpu_time)    wall_clock(cpu1)
  | Time for this iteration                    :        0.025 s           0.025 s
  | Charge density update                      :        0.006 s           0.006 s
  | Density mixing                             :        0.002 s           0.002 s
  | Hartree multipole update                   :        0.001 s           0.001 s
  | Hartree multipole summation                :        0.004 s           0.005 s
  | Integration                                :        0.008 s           0.008 s
  | Solution of K.-S. eqns.                    :        0.001 s           0.002 s
  | Total energy evaluation                    :        0.000 s           0.001 s
------------------------------------------------------------

------------------------------------------------------------
          Begin self-consistency iteration #   10

  Date     :  20220120, Time     :  153800.247
------------------------------------------------------------
  Evaluating new KS density.
  Integration grid: deviation in total charge (<rho> - N_e) =   2.232231E-08
  | <rho_up-rho_dn> = N_up-N_dn =      0.0313; <|rho_up-rho_dn|> =      0.6513
  Pulay mixing of updated and previous charge densities.

  Evaluating partitioned Hartree potential by multipole expansion.
  | Analytical far-field extrapolation by fixed multipoles:
  | Hartree multipole sum: apparent total charge =   0.839417E-05
  Summing up the Hartree potential.
  Time summed over all CPUs for potential: real work        0.033 s, elapsed        0.034 s
  | RMS charge density error from multipole expansion :   0.569670E-02

  Integrating Hamiltonian matrix: batch-based integration.
  Time summed over all CPUs for integration: real work        0.064 s, elapsed        0.068 s

  Updating Kohn-Sham eigenvalues, eigenvectors, occupation numbers, and Fermi level.
  Solving generalized eigenproblem
  Solving real symmetric generalised eigenvalue problem by standard ScaLAPACK.
  Using Cholesky factor for transformation
  Using 1-stage real ELPA solver
  Solving real symmetric generalised eigenvalue problem by standard ScaLAPACK.
  Using Cholesky factor for transformation
  Using 1-stage real ELPA solver
  Determining occupation numbers for Kohn-Sham eigenstates.
  | Chemical potential (Fermi level) in eV                 : 0.88751550E-01
  | Error in electron count due to remaining E_F inaccuracy: 0.00000000E+00
  | Maximum occupation number of highest empty state:  0.00E+00

  Current spin moment of the entire structure :
  | N = N_up - N_down :    0.00
  | S                 :    0.00
  | J                 :    1.00

  Highest occupied state (VBM) at     -1.95389441 eV
  | Occupation number:      1.00000000
  | Spin channel:        2

  Lowest unoccupied state (CBM) at     2.23071825 eV
  | Occupation number:      0.00000000
  | Spin channel:        1

  Overall HOMO-LUMO gap:      4.18461267 eV.

  Total energy components:
  | Sum of eigenvalues            :          -0.14735332 Ha          -4.00968794 eV
  | XC energy correction          :          -1.31251355 Ha         -35.71531088 eV
  | XC potential correction       :           1.69094911 Ha          46.01306638 eV
  | Free-atom electrostatic energy:          -0.02794020 Ha          -0.76029144 eV
  | Hartree energy correction     :          -1.47436581 Ha         -40.11953493 eV
  | van der Waals energy corr.    :           0.00000000 Ha           0.00000000 eV
  | Entropy correction            :           0.00000000 Ha           0.00000000 eV
  | ---------------------------
  | Total energy                  :          -1.27122377 Ha         -34.59175881 eV
  | Total energy, T -> 0          :          -1.27122377 Ha         -34.59175881 eV  <-- do not rely on this value for anything but (periodic) metals
  | Electronic free energy        :          -1.27122377 Ha         -34.59175881 eV

  Derived energy quantities:
  | Kinetic energy                :           2.67869790 Ha          72.89107840 eV
  | Electrostatic energy          :          -2.63740812 Ha         -71.76752634 eV
  | Energy correction for multipole
  | error in Hartree potential    :           0.00001980 Ha           0.00053880 eV
  | Sum of eigenvalues per atom                           :          -2.00484397 eV
  | Total energy (T->0) per atom                          :         -17.29587941 eV  <-- do not rely on this value for anything but (periodic) metals
  | Electronic free energy per atom                       :         -17.29587941 eV

  Self-consistency convergence accuracy:
  | Change of charge/spin density : 0.1041E+01 0.2082E+00
  | Change of sum of eigenvalues  : -.5362E+01 eV
  | Change of total energy        : 0.9943E+01 eV

  End self-consistency iteration #    10       :  max(cpu_time)    wall_clock(cpu1)
  | Time for this iteration                    :        0.025 s           0.026 s
  | Charge density update                      :        0.006 s           0.007 s
  | Density mixing                             :        0.002 s           0.001 s
  | Hartree multipole update                   :        0.001 s           0.002 s
  | Hartree multipole summation                :        0.005 s           0.004 s
  | Integration                                :        0.009 s           0.009 s
  | Solution of K.-S. eqns.                    :        0.001 s           0.002 s
  | Total energy evaluation                    :        0.000 s           0.001 s
------------------------------------------------------------

------------------------------------------------------------
          Begin self-consistency iteration #   11

  Date     :  20220120, Time     :  153800.277
------------------------------------------------------------
  Evaluating new KS density.
  Integration grid: deviation in total charge (<rho> - N_e) =   4.561264E-08
  | <rho_up-rho_dn> = N_up-N_dn =     -0.0076; <|rho_up-rho_dn|> =      0.3453
  Pulay mixing of updated and previous charge densities.

  Evaluating partitioned Hartree potential by multipole expansion.
  | Analytical far-field extrapolation by fixed multipoles:
  | Hartree multipole sum: apparent total charge =   0.179858E-04
  Summing up the Hartree potential.
  Time summed over all CPUs for potential: real work        0.033 s, elapsed        0.033 s
  | RMS charge density error from multipole expansion :   0.104794E-01

  Integrating Hamiltonian matrix: batch-based integration.
  Time summed over all CPUs for integration: real work        0.061 s, elapsed        0.065 s

  Updating Kohn-Sham eigenvalues, eigenvectors, occupation numbers, and Fermi level.
  Solving generalized eigenproblem
  Solving real symmetric generalised eigenvalue problem by standard ScaLAPACK.
  Using Cholesky factor for transformation
  Using 1-stage real ELPA solver
  Solving real symmetric generalised eigenvalue problem by standard ScaLAPACK.
  Using Cholesky factor for transformation
  Using 1-stage real ELPA solver
  Determining occupation numbers for Kohn-Sham eigenstates.
  | Chemical potential (Fermi level) in eV                 : 0.25157942E+01
  | Error in electron count due to remaining E_F inaccuracy: 0.00000000E+00
  | Maximum occupation number of highest empty state:  0.00E+00

  Current spin moment of the entire structure :
  | N = N_up - N_down :    0.00
  | S                 :    0.00
  | J                 :    1.00

  Highest occupied state (VBM) at      1.65372195 eV
  | Occupation number:      1.00000000
  | Spin channel:        2
 * WARNING: The VBM is higher than the internal energy zero!

  Lowest unoccupied state (CBM) at     2.79583667 eV
  | Occupation number:      0.00000000
  | Spin channel:        1

  Overall HOMO-LUMO gap:      1.14211472 eV.

  Total energy components:
  | Sum of eigenvalues            :           0.12007463 Ha           3.26739706 eV
  | XC energy correction          :          -2.02880933 Ha         -55.20671073 eV
  | XC potential correction       :           2.62141906 Ha          71.33244186 eV
  | Free-atom electrostatic energy:          -0.02794020 Ha          -0.76029144 eV
  | Hartree energy correction     :          -3.10213556 Ha         -84.41340336 eV
  | van der Waals energy corr.    :           0.00000000 Ha           0.00000000 eV
  | Entropy correction            :           0.00000000 Ha           0.00000000 eV
  | ---------------------------
  | Total energy                  :          -2.41739139 Ha         -65.78056660 eV
  | Total energy, T -> 0          :          -2.41739139 Ha         -65.78056660 eV  <-- do not rely on this value for anything but (periodic) metals
  | Electronic free energy        :          -2.41739139 Ha         -65.78056660 eV

  Derived energy quantities:
  | Kinetic energy                :           2.68516879 Ha          73.06716048 eV
  | Electrostatic energy          :          -3.07375085 Ha         -83.64101636 eV
  | Energy correction for multipole
  | error in Hartree potential    :          -0.00039323 Ha          -0.01070032 eV
  | Sum of eigenvalues per atom                           :           1.63369853 eV
[...]
  | Change of sum of eigenvalues  : -.8740E-03 eV
  | Change of total energy        : -.5888E-07 eV

  End self-consistency iteration #    27       :  max(cpu_time)    wall_clock(cpu1)
  | Time for this iteration                    :        0.027 s           0.026 s
  | Charge density update                      :        0.007 s           0.006 s
  | Density mixing                             :        0.002 s           0.002 s
  | Hartree multipole update                   :        0.001 s           0.001 s
  | Hartree multipole summation                :        0.004 s           0.005 s
  | Integration                                :        0.010 s           0.009 s
  | Solution of K.-S. eqns.                    :        0.001 s           0.002 s
  | Total energy evaluation                    :        0.000 s           0.001 s
------------------------------------------------------------

------------------------------------------------------------
          Begin self-consistency iteration #   28

  Date     :  20220120, Time     :  153800.778
------------------------------------------------------------
  Evaluating new KS density.
  Integration grid: deviation in total charge (<rho> - N_e) =   2.016609E-12
  | <rho_up-rho_dn> = N_up-N_dn =      0.0000; <|rho_up-rho_dn|> =      0.0000
  Pulay mixing of updated and previous charge densities.

  Evaluating partitioned Hartree potential by multipole expansion.
  | Analytical far-field extrapolation by fixed multipoles:
  | Hartree multipole sum: apparent total charge =   0.986526E-06
  Summing up the Hartree potential.
  Time summed over all CPUs for potential: real work        0.032 s, elapsed        0.033 s
  | RMS charge density error from multipole expansion :   0.215277E-02

  Integrating Hamiltonian matrix: batch-based integration.
  Time summed over all CPUs for integration: real work        0.072 s, elapsed        0.077 s

  Updating Kohn-Sham eigenvalues, eigenvectors, occupation numbers, and Fermi level.
  Solving generalized eigenproblem
  Solving real symmetric generalised eigenvalue problem by standard ScaLAPACK.
  Using Cholesky factor for transformation
  Using 1-stage real ELPA solver
  Solving real symmetric generalised eigenvalue problem by standard ScaLAPACK.
  Using Cholesky factor for transformation
  Using 1-stage real ELPA solver
  Determining occupation numbers for Kohn-Sham eigenstates.
  | Chemical potential (Fermi level) in eV                 : -.10141308E+02
  | Error in electron count due to remaining E_F inaccuracy: 0.00000000E+00
  | Maximum occupation number of highest empty state:  0.00E+00

  Current spin moment of the entire structure :
  | N = N_up - N_down :    0.00
  | S                 :    0.00
  | J                 :    1.00

  Highest occupied state (VBM) at    -11.85042649 eV
  | Occupation number:      1.00000000
  | Spin channel:        2

  Lowest unoccupied state (CBM) at     1.24602552 eV
  | Occupation number:      0.00000000
  | Spin channel:        1

  Overall HOMO-LUMO gap:     13.09645201 eV.

  Total energy components:
  | Sum of eigenvalues            :          -0.87099034 Ha         -23.70085315 eV
  | XC energy correction          :          -0.78767577 Ha         -21.43374820 eV
  | XC potential correction       :           1.01080888 Ha          27.50550900 eV
  | Free-atom electrostatic energy:          -0.02794020 Ha          -0.76029144 eV
  | Hartree energy correction     :          -0.40921436 Ha         -11.13528918 eV
  | van der Waals energy corr.    :           0.00000000 Ha           0.00000000 eV
  | Entropy correction            :           0.00000000 Ha           0.00000000 eV
  | ---------------------------
  | Total energy                  :          -1.08501179 Ha         -29.52467298 eV
  | Total energy, T -> 0          :          -1.08501179 Ha         -29.52467298 eV  <-- do not rely on this value for anything but (periodic) metals
  | Electronic free energy        :          -1.08501179 Ha         -29.52467298 eV

  Derived energy quantities:
  | Kinetic energy                :           1.47119749 Ha          40.03332062 eV
  | Electrostatic energy          :          -1.76853351 Ha         -48.12424539 eV
  | Energy correction for multipole
  | error in Hartree potential    :           0.00005646 Ha           0.00153637 eV
  | Sum of eigenvalues per atom                           :         -11.85042657 eV
  | Total energy (T->0) per atom                          :         -14.76233649 eV  <-- do not rely on this value for anything but (periodic) metals
  | Electronic free energy per atom                       :         -14.76233649 eV

  Self-consistency convergence accuracy:
  | Change of charge/spin density : 0.4694E-05 0.5039E-05
  | Change of sum of eigenvalues  : 0.3827E-03 eV
  | Change of total energy        : -.1249E-06 eV

  End self-consistency iteration #    28       :  max(cpu_time)    wall_clock(cpu1)
  | Time for this iteration                    :        0.027 s           0.025 s
  | Charge density update                      :        0.007 s           0.005 s
  | Density mixing                             :        0.002 s           0.002 s
  | Hartree multipole update                   :        0.001 s           0.002 s
  | Hartree multipole summation                :        0.004 s           0.004 s
  | Integration                                :        0.010 s           0.010 s
  | Solution of K.-S. eqns.                    :        0.001 s           0.001 s
  | Total energy evaluation                    :        0.000 s           0.000 s
------------------------------------------------------------

------------------------------------------------------------
          Begin self-consistency iteration #   29

  Date     :  20220120, Time     :  153800.808
------------------------------------------------------------
  Evaluating new KS density.
  Integration grid: deviation in total charge (<rho> - N_e) =   5.782930E-12
  | <rho_up-rho_dn> = N_up-N_dn =     -0.0000; <|rho_up-rho_dn|> =      0.0000
  Pulay mixing of updated and previous charge densities.

  Evaluating partitioned Hartree potential by multipole expansion.
  | Analytical far-field extrapolation by fixed multipoles:
  | Hartree multipole sum: apparent total charge =   0.986342E-06
  Summing up the Hartree potential.
  Time summed over all CPUs for potential: real work        0.033 s, elapsed        0.034 s
  | RMS charge density error from multipole expansion :   0.215277E-02

  Integrating Hamiltonian matrix: batch-based integration.
  Time summed over all CPUs for integration: real work        0.073 s, elapsed        0.077 s

  Updating Kohn-Sham eigenvalues, eigenvectors, occupation numbers, and Fermi level.
  Solving generalized eigenproblem
  Solving real symmetric generalised eigenvalue problem by standard ScaLAPACK.
  Using Cholesky factor for transformation
  Using 1-stage real ELPA solver
  Solving real symmetric generalised eigenvalue problem by standard ScaLAPACK.
  Using Cholesky factor for transformation
  Using 1-stage real ELPA solver
  Determining occupation numbers for Kohn-Sham eigenstates.
  | Chemical potential (Fermi level) in eV                 : -.10140312E+02
  | Error in electron count due to remaining E_F inaccuracy: 0.00000000E+00
  | Maximum occupation number of highest empty state:  0.00E+00

  Current spin moment of the entire structure :
  | N = N_up - N_down :    0.00
  | S                 :    0.00
  | J                 :    1.00

  Highest occupied state (VBM) at    -11.85042796 eV
  | Occupation number:      1.00000000
  | Spin channel:        1

  Lowest unoccupied state (CBM) at     1.24598159 eV
  | Occupation number:      0.00000000
  | Spin channel:        1

  Overall HOMO-LUMO gap:     13.09640955 eV.

  Total energy components:
  | Sum of eigenvalues            :          -0.87099047 Ha         -23.70085644 eV
  | XC energy correction          :          -0.78767578 Ha         -21.43374845 eV
  | XC potential correction       :           1.01080888 Ha          27.50550914 eV
  | Free-atom electrostatic energy:          -0.02794020 Ha          -0.76029144 eV
  | Hartree energy correction     :          -0.40921423 Ha         -11.13528578 eV
  | van der Waals energy corr.    :           0.00000000 Ha           0.00000000 eV
  | Entropy correction            :           0.00000000 Ha           0.00000000 eV
  | ---------------------------
  | Total energy                  :          -1.08501179 Ha         -29.52467298 eV
  | Total energy, T -> 0          :          -1.08501179 Ha         -29.52467298 eV  <-- do not rely on this value for anything but (periodic) metals
  | Electronic free energy        :          -1.08501179 Ha         -29.52467298 eV

  Derived energy quantities:
  | Kinetic energy                :           1.47119834 Ha          40.03334374 eV
  | Electrostatic energy          :          -1.76853435 Ha         -48.12426826 eV
  | Energy correction for multipole
  | error in Hartree potential    :           0.00005646 Ha           0.00153636 eV
  | Sum of eigenvalues per atom                           :         -11.85042822 eV
  | Total energy (T->0) per atom                          :         -14.76233649 eV  <-- do not rely on this value for anything but (periodic) metals
  | Electronic free energy per atom                       :         -14.76233649 eV

  Self-consistency convergence accuracy:
  | Change of charge/spin density : 0.5872E-06 0.3220E-06
  | Change of sum of eigenvalues  : -.3291E-05 eV
  | Change of total energy        : 0.4108E-09 eV

  Writing Kohn-Sham eigenvalues.

  Spin-up eigenvalues:

  State    Occupation    Eigenvalue [Ha]    Eigenvalue [eV]
      1       1.00000          -0.435495          -11.85043
      2       0.00000           0.045789            1.24598
      3       0.00000           0.046685            1.27037
      4       0.00000           0.209489            5.70048
      5       0.00000           0.343396            9.34428
      6       0.00000           0.343396            9.34428
      7       0.00000           0.350669            9.54220
      8       0.00000           0.678006           18.44948
      9       0.00000           0.787244           21.42200
     10       0.00000           0.787244           21.42200
     11       0.00000           0.821284           22.34829

  Spin-down eigenvalues:

  State    Occupation    Eigenvalue [Ha]    Eigenvalue [eV]
      1       1.00000          -0.435495          -11.85043
      2       0.00000           0.045792            1.24606
      3       0.00000           0.046690            1.27050
      4       0.00000           0.209497            5.70070
      5       0.00000           0.343396            9.34429
      6       0.00000           0.343396            9.34429
      7       0.00000           0.350673            9.54229
      8       0.00000           0.678010           18.44958
      9       0.00000           0.787244           21.42200
     10       0.00000           0.787244           21.42200
     11       0.00000           0.821285           22.34829

  Current spin moment of the entire structure :
  | N = N_up - N_down :    0.00
  | S                 :    0.00
  | J                 :    1.00

  Highest occupied state (VBM) at    -11.85042796 eV
  | Occupation number:      1.00000000
  | Spin channel:        1

  Lowest unoccupied state (CBM) at     1.24598159 eV
  | Occupation number:      0.00000000
  | Spin channel:        1

  Overall HOMO-LUMO gap:     13.09640955 eV.

  Self-consistency cycle converged.

  End self-consistency iteration #    29       :  max(cpu_time)    wall_clock(cpu1)
  | Time for this iteration                    :        0.027 s           0.027 s
  | Charge density update                      :        0.006 s           0.006 s
  | Density mixing                             :        0.002 s           0.002 s
  | Hartree multipole update                   :        0.001 s           0.001 s
  | Hartree multipole summation                :        0.005 s           0.005 s
  | Integration                                :        0.010 s           0.009 s
  | Solution of K.-S. eqns.                    :        0.001 s           0.002 s
  | Total energy evaluation                    :        0.000 s           0.001 s
------------------------------------------------------------
  Obtaining max. number of non-zero basis functions in each batch .
  Evaluating KS electron density on previously omitted grid points.
  Evaluating non-empirical van der Waals correction (Tkatchenko/Scheffler 2009).
  Performing Hirshfeld analysis of fragment charges and moments.
  ----------------------------------------------------------------------
  | Atom     1: H
  |   Hirshfeld charge        :     -0.00000130
  |   Free atom volume        :     10.31539447
  |   Hirshfeld volume        :      4.05374846
  |   Hirshfeld spin moment   :      0.00000041
  |   Hirshfeld dipole vector :      0.00000000      -0.00000000      -0.06454131
  |   Hirshfeld dipole moment :      0.06454131
  |   Hirshfeld second moments:      0.15951725       0.00000000      -0.00000000
  |                                  0.00000000       0.15951725      -0.00000000
  |                                 -0.00000000      -0.00000000       0.15482044
  ----------------------------------------------------------------------
  | Atom     2: H
  |   Hirshfeld charge        :     -0.00000130
  |   Free atom volume        :     10.31539447
  |   Hirshfeld volume        :      4.05374846
  |   Hirshfeld spin moment   :      0.00000041
  |   Hirshfeld dipole vector :      0.00000000       0.00000000       0.06454131
  |   Hirshfeld dipole moment :      0.06454131
  |   Hirshfeld second moments:      0.15951725       0.00000000      -0.00000000
  |                                  0.00000000       0.15951725       0.00000000
  |                                 -0.00000000       0.00000000       0.15482044
  ----------------------------------------------------------------------


  Total energy components:
  | Sum of eigenvalues            :          -0.87099047 Ha         -23.70085644 eV
  | XC energy correction          :          -0.78767578 Ha         -21.43374845 eV
  | XC potential correction       :           1.01080888 Ha          27.50550914 eV
  | Free-atom electrostatic energy:          -0.02794020 Ha          -0.76029144 eV
  | Hartree energy correction     :          -0.40921423 Ha         -11.13528578 eV
  | van der Waals energy corr.    :          -0.00000025 Ha          -0.00000684 eV
  | Entropy correction            :           0.00000000 Ha           0.00000000 eV
  | ---------------------------
  | Total energy                  :          -1.08501204 Ha         -29.52467982 eV
  | Total energy, T -> 0          :          -1.08501204 Ha         -29.52467982 eV  <-- do not rely on this value for anything but (periodic) metals
  | Electronic free energy        :          -1.08501204 Ha         -29.52467982 eV

  Derived energy quantities:
  | Kinetic energy                :           1.47119834 Ha          40.03334374 eV
  | Electrostatic energy          :          -1.76853435 Ha         -48.12426826 eV
  | Energy correction for multipole
  | error in Hartree potential    :           0.00005646 Ha           0.00153636 eV
  | Sum of eigenvalues per atom                           :         -11.85042822 eV
  | Total energy (T->0) per atom                          :         -14.76233991 eV  <-- do not rely on this value for anything but (periodic) metals
  | Electronic free energy per atom                       :         -14.76233991 eV
  Timings for VdW correction (Tkatchenko-Scheffler 2009 or later):
  | CPU time:        0.004 s, Wall clock time:        0.003 s.

  Energy and forces in a compact form:
  | Total energy uncorrected      :         -0.295246798150993E+02 eV
  | Total energy corrected        :         -0.295246798150993E+02 eV  <-- do not rely on this value for anything but (periodic) metals
  | Electronic free energy        :         -0.295246798150993E+02 eV

  ------------------------------------ 
  Start decomposition of the XC Energy 
  ------------------------------------ 
  Hartree-Fock part   :          0.000000000 Ha              0.000000000 eV
  ------------------------------------ 
  X Energy            :         -0.743905490 Ha            -20.242698311 eV
  C Energy GGA        :         -0.043770288 Ha             -1.191050143 eV
  Total XC Energy     :         -0.787675778 Ha            -21.433748454 eV
  LDA X and C from self-consistent density 
  X Energy LDA        :         -0.651423649 Ha            -17.726139378 eV
  C Energy LDA        :         -0.099948097 Ha             -2.719726085 eV
  ------------------------------------ 
  End decomposition of the XC Energy 
  ------------------------------------ 

------------------------------------------------------------------------------
  Final output of selected total energy values:

  The following output summarizes some interesting total energy values
  at the end of a run (AFTER all relaxation, molecular dynamics, etc.).

  | Total energy of the DFT / Hartree-Fock s.c.f. calculation      :            -29.524679815 eV
  | Final zero-broadening corrected energy (caution - metals only) :            -29.524679815 eV
  | For reference only, the value of 1 Hartree used in FHI-aims is :             27.211384500 eV

  Before relying on these values, please be sure to understand exactly which
  total energy value is referred to by a given number. Different objects may
  all carry the same name 'total energy'. Definitions:

  Total energy of the DFT / Hartree-Fock s.c.f. calculation:
  | Note that this energy does not include ANY quantities calculated after the
  | s.c.f. cycle, in particular not ANY RPA, MP2, etc. many-body perturbation terms.

  Final zero-broadening corrected energy:
  | For metallic systems only, a broadening of the occupation numbers at the Fermi
  | level can be extrapolated back to zero broadening by an electron-gas inspired
  | formula. For all systems that are not real metals, this value can be
  | meaningless and should be avoided.

------------------------------------------------------------------------------

------------------------------------------------------------
          Leaving FHI-aims.
          Date     :  20220120, Time     :  153800.846

          Computational steps:
          | Number of self-consistency cycles          :           29

          Detailed time accounting                     :  max(cpu_time)    wall_clock(cpu1)
          | Total time                                 :        0.958 s           1.064 s
          | Preparation time                           :        0.081 s           0.080 s
          | Grid partitioning                          :        0.007 s           0.007 s
          | Preloading free-atom quantities on grid    :        0.004 s           0.004 s
          | Free-atom superposition energy             :        0.002 s           0.003 s
          | Total time for integrations                :        0.285 s           0.286 s
          | Total time for solution of K.-S. equations :        0.046 s           0.052 s
          | Total time for density update              :        0.209 s           0.171 s
          | Total time for mixing                      :        0.049 s           0.053 s
          | Total time for Hartree multipole update    :        0.039 s           0.042 s
          | Total time for Hartree multipole sum       :        0.132 s           0.133 s
          | Total time for total energy evaluation     :        0.005 s           0.020 s
          | Total time for scaled ZORA corrections     :        0.000 s           0.000 s
          | Total time for vdW correction              :        0.004 s           0.003 s

          Have a nice day.
------------------------------------------------------------
