  MPI-parallelism will be employed.
------------------------------------------------------------
          Invoking FHI-aims ...
          Version 052014
          Git rev. (modified): 096c982 Merge branch master of fhiaims:/pub/localo[...]
          Compiled on 2016/12/16 at 15:22:01 on host login02.hpc.iitd.ac.in.

          When using FHI-aims, please cite the following reference:

          Volker Blum, Ralf Gehrke, Felix Hanke, Paula Havu,
          Ville Havu, Xinguo Ren, Karsten Reuter, and Matthias Scheffler,
          'Ab Initio Molecular Simulations with Numeric Atom-Centered Orbitals: FHI-aims',
          Computer Physics Communications 180, 2175-2196 (2009)

          For any questions about FHI-aims, please visit the aimsclub website
          with its forums and wiki. Contributions to both the forums and the
          wiki are warmly encouraged - they are for you, and everyone is welcome there.

------------------------------------------------------------

  Date     :  20220120, Time     :  153601.223
  Time zero on CPU 1             :   0.110950000000000E-01  s.
  Internal wall clock time zero  :           411924961.223  s.

  Using        8 parallel tasks.
  Task        0 on host csky029 reporting.
  Task        1 on host csky029 reporting.
  Task        2 on host csky029 reporting.
  Task        3 on host csky029 reporting.
  Task        4 on host csky029 reporting.
  Task        5 on host csky029 reporting.
  Task        6 on host csky029 reporting.
  Task        7 on host csky029 reporting.

  Performing system and environment tests:
  | Environment variable OMP_NUM_THREADS correctly set to 1.
  | Stacksize not measured: no C compiler
  | Checking for scalapack...
  | Testing pdtran()...
  | All pdtran() tests passed.

  Obtaining array dimensions for all initial allocations:
  
  -----------------------------------------------------------------------
  Parsing control.in (first pass over file, find array dimensions only).
  The contents of control.in will be repeated verbatim below
  unless switched off by setting 'verbatim_writeout .false.' .
  in the first line of control.in .
  -----------------------------------------------------------------------
  
    xc               pbe
    spin             collinear
    default_initial_moment hund
    relativistic     atomic_zora scalar 1e-9
    occupation_type  gaussian 0.001
    charge        0
    vdw_correction_hirshfeld
    KS_method        scalapack_fast
    mixer            pulay
    charge_mix_param  0.4
    spin_mix_param    0.6
    sc_accuracy_rho  1E-4
    sc_accuracy_eev  1E-5
    sc_accuracy_etot 1E-5
    sc_iter_limit    100
    empty_states     10
  ################################################################################
  #
  #  FHI-aims code project
  # Volker Blum, Fritz Haber Institute Berlin, 2009
  #
  #  Suggested "tight" defaults for H atom (to be pasted into control.in file)
  #
  ################################################################################
    species        H
  #     global species definitions
      nucleus             1
      mass                1.00794
  #
      l_hartree           6
  #
      cut_pot             4.0  2.0  1.0
      basis_dep_cutoff    1e-4
  #
      radial_base         24 7.0
      radial_multiplier   2
      angular_grids       specified
        division   0.1930   50
        division   0.3175  110
        division   0.4293  194
        division   0.5066  302
        division   0.5626  434
  #      division   0.5922  590
  #      division   0.6227  974
  #      division   0.6868 1202
  #      outer_grid  770
        outer_grid  434
  ################################################################################
  #
  #  Definition of "minimal" basis
  #
  ################################################################################
  #     valence basis states
      valence      1  s   1.
  #     ion occupancy
      ion_occ      1  s   0.5
  ################################################################################
  #
  #  Suggested additional basis functions. For production calculations,
  #  uncomment them one after another (the most important basis functions are
  #  listed first).
  #
  #  Basis constructed for dimers: 0.5 A, 0.7 A, 1.0 A, 1.5 A, 2.5 A
  #
  ################################################################################
  #  "First tier" - improvements: -1014.90 meV to -62.69 meV
       hydro 2 s 2.1
       hydro 2 p 3.5
  #  "Second tier" - improvements: -12.89 meV to -1.83 meV
       hydro 1 s 0.85
       hydro 2 p 3.7
       hydro 2 s 1.2
       hydro 3 d 7
  #  "Third tier" - improvements: -0.25 meV to -0.12 meV
  #     hydro 4 f 11.2
  #     hydro 3 p 4.8
  #     hydro 4 d 9
  #     hydro 3 s 3.2
  ################################################################################
  #
  # For methods that use the localized form of the "resolution of identity" for
  # the two-electron Coulomb operator (RI_method LVL), particularly Hartree-Fock and
  # hybrid density functional calculations, the highest accuracy can be obtained by
  # uncommenting the line beginning with "for_aux"  below, thus adding an extra g radial
  # function to the construction of the product basis set for the expansion.
  # See Ref. New J. Phys. 17, 093020 (2015) for more information, particularly Figs. 1 and 6.
  #
  ################################################################################
  #
  # for_aux hydro 5 g 6.0
  
  -----------------------------------------------------------------------
  Completed first pass over input file control.in .
  -----------------------------------------------------------------------
  
  
  -----------------------------------------------------------------------
  Parsing geometry.in (first pass over file, find array dimensions only).
  The contents of geometry.in will be repeated verbatim below
  unless switched off by setting 'verbatim_writeout .false.' .
  in the first line of geometry.in .
  -----------------------------------------------------------------------
  
  atom 0 0 0 H
  atom 0 0 0.63 H
  
  -----------------------------------------------------------------------
  Completed first pass over input file geometry.in .
  -----------------------------------------------------------------------
  

  Basic array size parameters:
  | Number of species                 :        1
  | Number of atoms                   :        2
  | Max. basis fn. angular momentum   :        2
  | Max. atomic/ionic basis occupied n:        1
  | Max. number of basis fn. types    :        2
  | Max. radial fns per species/type  :        6
  | Max. logarithmic grid size        :     1131
  | Max. radial integration grid size :       49
  | Max. angular integration grid size:      434
  | Max. angular grid division number :        8
  | Radial grid for Hartree potential :     1131
  | Number of spin channels           :        2

------------------------------------------------------------
          Reading file control.in.
------------------------------------------------------------
  XC: Using PBE gradient-corrected functionals.
  Spin treatment: Spin density functional theory - collinear spins.
  Initial spin moment per atom set according to Hund's rules.
  Scalar relativistic treatment of kinetic energy: on-site free-atom approximation to ZORA.
  Occupation type: Gaussian broadening, width =   0.100000E-02 eV.
  Charge =   0.000000E+00: Neutral system requested explicitly.
  Using non-empirical van der Waals correction (Hirshfeld partitioning):
  Kohn-Sham eigenvalues and eigenfunctions calculated by the ELPA eigensolver library.
  Using pulay charge density mixing.
  Charge density mixing - mixing parameter:     0.4000
  Spin density mixing - mixing parameter:     0.6000
  Convergence accuracy of self-consistent charge density: 0.1000E-03
  Convergence accuracy of sum of eigenvalues: 0.1000E-04
  Convergence accuracy of total energy: 0.1000E-04
  Maximum number of s.-c. iterations  :   100
  Number of empty states per atom:       10
 
  Reading configuration options for species H                   .
  | Found nuclear charge :   1.0000
  | Found atomic mass :    1.00794000000000      amu
  | Found l_max for Hartree potential  :   6
  | Found cutoff potl. onset [A], width [A], scale factor :    4.00000    2.00000    1.00000
  | Threshold for basis-dependent cutoff potential is   0.100000E-03
  | Found data for basic radial integration grid :    24 points, outermost radius =    7.000 A
  | Found multiplier for basic radial grid :   2
  | Found angular grid specification: user-specified.
  | Specified grid contains     6 separate shells.
  | Check grid settings after all constraints further below.
  | Found free-atom valence shell :  1 s   1.000
  | No ionic wave fns used. Skipping ion_occ.
  | Found hydrogenic basis function :  2 s   2.100
  | Found hydrogenic basis function :  2 p   3.500
  | Found hydrogenic basis function :  1 s   0.850
  | Found hydrogenic basis function :  2 p   3.700
  | Found hydrogenic basis function :  2 s   1.200
  | Found hydrogenic basis function :  3 d   7.000
  Species H                   : Missing cutoff potential type.
  Defaulting to exp(1/x)/(1-x)^2 type cutoff potential.
  Species H : No 'logarithmic' tag. Using default grid for free atom:
  | Default logarithmic grid data [bohr] : 0.1000E-03 0.1000E+03 0.1012E+01
  Species H : On-site basis accuracy parameter (for Gram-Schmidt orthonormalisation) not specified.
  Using default value basis_acc =  0.1000000E-03.
  Species H                   : Using default innermost maximum threshold i_radial=  2 for radial functions.
  Species H                   : Default cutoff onset for free atom density etc. : 0.40000000E+01 AA.
  Species H                   : Basic radial grid will be enhanced according to radial_multiplier =   2, to contain    49 grid points.
 
  Finished reading input file 'control.in'. Consistency checks are next.
 
  Target number of points in a grid batch is not set. Defaulting to  100
  Method for grid partitioning is not set. Defaulting to parallel hash+maxmin partitioning.
  Batch size limit is not set. Defaulting to    200
  By default, will store active basis functions for each batch.
  If in need of memory, prune_basis_once .false. can be used to disable this option.
  communication_type for Hartree potential was not specified.
  Defaulting to calc_hartree .
  Pulay mixer: Number of relevant iterations not set.
  Defaulting to    8 iterations.
  Pulay mixer: Number of initial linear mixing iterations not set.
  Defaulting to    0 iterations.
  Work space size for distributed Hartree potential not set.
  Defaulting to   0.200000E+03 MB.
  Algorithm-dependent basis array size parameters:
  | n_max_pulay                         :        8
  Calculation of forces was not defined in control.in. No forces will be calculated.
  Geometry relaxation not requested: no relaxation will be performed.
  No accuracy limit for integral partition fn. given. Defaulting to 0.1000E-14.
  No threshold value for u(r) in integrations given. Defaulting to 0.1000E-05.
  No accuracy for occupation numbers given. Defaulting to 0.1000E-07.
  No threshold value for occupation numbers given. Defaulting to 0.0000E+00.
  No accuracy for fermi level given. Defaulting to 0.1000E-19.
  Maximum # of iterations to find E_F not set. Defaulting to  200.
  Will not use alltoall communication since running on < 1024 CPUs.
  Threshold for basis singularities not set.
  Default threshold for basis singularities: 0.1000E-04
  partition_type (choice of integration weights) for integrals was not specified.
  | Using a version of the partition function of Stratmann and coworkers ('stratmann_smoother').
  | At each grid point, the set of atoms used to build the partition table is smoothly restricted to
  | only those atoms whose free-atom density would be non-zero at that grid point.
  Partitioning for Hartree potential was not defined. Using partition_type for integrals.
  | Adjusted default value of keyword multip_moments_threshold to:       0.10000000E-11
  | This value may affect high angular momentum components of the Hartree potential in periodic systems.
  No q(lm)/r^(l+1) cutoff set for long-range Hartree potential.
  | Using default value of  0.100000E-09 .
  | Verify using the multipole_threshold keyword.
  Defaulting to new monopole extrapolation.
  Density update method: automatic selection selected.
------------------------------------------------------------


------------------------------------------------------------
          Reading geometry description geometry.in.
------------------------------------------------------------
  Input structure read successfully.
  The structure contains        2 atoms,  and a total of          2.000 electrons.

  Input geometry:
  | No unit cell requested.
  | Atomic structure:
  |       Atom                x [A]            y [A]            z [A]
  |    1: Species H              0.000000         0.000000         0.000000
  |    2: Species H              0.000000         0.000000         0.630000
  |

  | The smallest distance between any two atoms is         0.63000000 AA.
  |
  | The first atom of this pair is atom number                      1 .
  | The second atom of this pair is atom number                     2 .

  Initial moments and charges:
  |  Atom   Moment         Charge        Species
  |     1  (Hund's rule)   0.000000E+00   H
  |     2  (Hund's rule)   0.000000E+00   H

  Structure-dependent array size parameters: 
  | Number of distinct atom types in initial rho :        1
  | Maximum number of distinct radial functions  :        7
  | Maximum number of basis functions            :       30
  | Number of Kohn-Sham states (occupied + empty):       11
------------------------------------------------------------

------------------------------------------------------------
          Preparing all fixed parts of the calculation.
------------------------------------------------------------
  Determining machine precision:
    2.225073858507201E-308
  Setting up grids for atomic and cluster calculations.

  Creating wave function, potential, and density for free atoms.

  Species: H

  List of occupied orbitals and eigenvalues:
    n    l              occ      energy [Ha]    energy [eV]
    1    0           1.0000        -0.238386        -6.4868

  Spin-polarized or charged system:
  Charge density initialized according to selected moments and charges.

  Creating spin-polarized density from free atoms.

  Species: H
  Charge:   0.000000
  applying Hund's rules ...

  List of occupied orbitals and eigenvalues:
    n    l      energy [Ha]    energy [eV]    occupation
  Spin-up
    1    0        -0.278991        -7.5917     1.00000000
  Spin-down
    1    0         0.090850         2.4721     0.00000000

  Creating fixed part of basis set: Ionic, confined, hydrogenic.
 
  H                    hydrogenic:
 
  List of hydrogenic basis orbitals: 
    n    l      effective z      eigenvalue [eV]  inner max. [A]     outer max. [A]     outer radius [A]   
    2    0         2.100000       -14.9965           0.193243           1.317208           5.373006
    2    1         3.500000       -41.6672           0.602369           0.602369           4.056063
    1    0         0.850000        -9.8292           0.624871           0.624871           5.373006
    2    1         3.700000       -46.5653           0.573622           0.573622           3.910002
    2    0         1.200000        -4.5995           0.334980           2.228188           5.505995
    3    2         7.000000       -74.0753           0.680699           0.680699           3.769201
 

  Adding cutoff potential to free-atom effective potential.
  Creating atomic-like basis functions for current effective potential.

  Species H                   :

  List of atomic basis orbitals and eigenvalues:
    n    l      energy [Ha]    energy [eV]    outer radius [A]
    1    0        -0.238386        -6.4868       5.373006

  Assembling full basis from fixed parts.
  | Species H :   atomic orbital   1 s accepted.
  | Species H :    hydro orbital   2 s accepted.
  | Species H :    hydro orbital   1 s accepted.
  | Species H :    hydro orbital   2 s accepted.
  | Species H :    hydro orbital   2 p accepted.
  | Species H :    hydro orbital   2 p accepted.
  | Species H :    hydro orbital   3 d accepted.
 
  Basis size parameters after reduction:
  | Total number of radial functions:        7
  | Total number of basis functions :       30
 
  Testing on-site integration grid accuracy.
  |  Species  Function  <phi|h_atom|phi> (log., in eV)  <phi|h_atom|phi> (rad., in eV)
           1        1                 -6.4870767962                 -6.4871688290
           1        2                 13.5032046589                 13.5028982997
           1        3                 32.8195184817                 32.8119941656
           1        4                 33.8513856511                 33.7670005767 ***
           1        5                 28.8544614965                 28.8544615203
           1        6                 59.6326952547                 59.6327656460
           1        7                 60.2719308513                 60.2719305949
 * Note: Onsite integrals marked "***" above are less accurate than
 * onsite_accuracy_threshold =    0.03000 eV. Usually, this is harmless.
 * When in doubt, tighten the "radial" and/or "radial_multiplier" flags to check.

  Preparing densities etc. for the partition functions (integrals / Hartree potential).

  Preparations completed.
  max(cpu_time)          :      0.078 s.
  Wall clock time (cpu1) :      0.078 s.
------------------------------------------------------------

------------------------------------------------------------
          Begin self-consistency loop: Initialization.

          Date     :  20220120, Time     :  153601.380
------------------------------------------------------------

  Initializing index lists of integration centers etc. from given atomic structure:
  | Number of centers in hartree potential         :         2
  | Number of centers in hartree multipole         :         2
  | Number of centers in electron density summation:         2
  | Number of centers in basis integrals           :         2
  | Number of centers in integrals                 :         2
  Using modified Scalapack Eigenvalue solver (ELPA)
  * Using 8 tasks for Scalapack Eigenvalue solver.
  Detailed listing of tasks and assigned k-points:
  (for non-periodic systems, the "k-point" denotes an internal label only)
   Task     0 k-point     1 on csky029
   Task     1 k-point     1 on csky029
   Task     2 k-point     1 on csky029
   Task     3 k-point     1 on csky029
   Task     4 k-point     1 on csky029
   Task     5 k-point     1 on csky029
   Task     6 k-point     1 on csky029
   Task     7 k-point     1 on csky029
  Tasks:     8 split into      4 X      2 BLACS grid
  Calculating blocksize based on n_basis =           30 max_nprow =            4 max_npcol =            2
  Scalapack blocksize set to:            4
  Required Scalapack workspace - INTEGER:            1 REAL:             1
  Partitioning the integration grid into batches with parallel hashing+maxmin method.
  | Number of batches:      444
  | Maximal batch size:     197
  | Minimal batch size:      49
  | Average batch size:      65.090
  | Standard deviation of batch sizes:      18.570

  Integration load balanced across     8 MPI tasks.
  Work distribution over tasks is as follows:
  Task     0 has       3580 integration points.
  Task     1 has       3589 integration points.
  Task     2 has       3588 integration points.
  Task     3 has       3620 integration points.
  Task     4 has       3588 integration points.
  Task     5 has       3680 integration points.
  Task     6 has       3611 integration points.
  Task     7 has       3644 integration points.
  Initializing partition tables, free-atom densities, potentials, etc. across the integration grid (initialize_grid_storage).
  | initialize_grid_storage: Actual outermost partition radius vs. multipole_radius_free
  | (-- VB: in principle, multipole_radius_free should be larger, hence this output)
  | Species        1: outer_partition_radius =              6.000000000000000 AA, multipole_radius_free =              6.071692442739658 AA.
  | Original list of interatomic distances with           2 x          2 entries is created.
  | Net number of integration points:    28900
  | of which are non-zero points    :    26304
  Obtaining max. number of non-zero basis functions in each batch (get_n_compute_maxes).
  | Maximal number of non-zero basis functions:       30 in task     0
  | Maximal number of non-zero basis functions:       30 in task     1
  | Maximal number of non-zero basis functions:       30 in task     2
  | Maximal number of non-zero basis functions:       30 in task     3
  | Maximal number of non-zero basis functions:       30 in task     4
  | Maximal number of non-zero basis functions:       30 in task     5
  | Maximal number of non-zero basis functions:       30 in task     6
  | Maximal number of non-zero basis functions:       30 in task     7
  Selecting the method for density update.
  Loop over occupied states selected for charge density update.
  Integrating Hamiltonian matrix: batch-based integration.
  Time summed over all CPUs for integration: real work        0.078 s, elapsed        0.085 s
  Integrating overlap matrix.
  Time summed over all CPUs for integration: real work        0.022 s, elapsed        0.026 s
  Deallocating overlap matrix.

  Updating Kohn-Sham eigenvalues, eigenvectors, occupation numbers, and Fermi level.
  Solving generalized eigenproblem
  Solving real symmetric generalised eigenvalue problem by standard ScaLAPACK.
  Transforming overlap matrix with ScaLAPACK and checking for singularities.
  : Overlap matrix is nonsingular, using Cholesky decomposition
  | Lowest eigenvalue:  0.130413E-03
  Factoring overlap matrix with Cholesky decomposition
  Using Cholesky factor for transformation
  Using 1-stage real ELPA solver
  Solving real symmetric generalised eigenvalue problem by standard ScaLAPACK.
  Using Cholesky factor for transformation
  Using 1-stage real ELPA solver
  Determining occupation numbers for Kohn-Sham eigenstates.
  | Chemical potential (Fermi level) in eV                 : -.12302245E+00
  | Error in electron count due to remaining E_F inaccuracy: 0.00000000E+00
  | Maximum occupation number of highest empty state:  0.00E+00

  Writing Kohn-Sham eigenvalues.

  Spin-up eigenvalues:

  State    Occupation    Eigenvalue [Ha]    Eigenvalue [eV]
      1       1.00000          -0.646807          -17.60053
      2       1.00000          -0.033597           -0.91422
      3       0.00000           0.004446            0.12099
      4       0.00000           0.118875            3.23476
      5       0.00000           0.206840            5.62841
      6       0.00000           0.206840            5.62841
      7       0.00000           0.285566            7.77065
      8       0.00000           0.491877           13.38465
      9       0.00000           0.687617           18.71100
     10       0.00000           0.689487           18.76189
     11       0.00000           0.689487           18.76189

  Spin-down eigenvalues:

  State    Occupation    Eigenvalue [Ha]    Eigenvalue [eV]
      1       0.00000           0.099201            2.69940
      2       0.00000           0.115398            3.14013
      3       0.00000           0.504248           13.72129
      4       0.00000           0.532295           14.48448
      5       0.00000           1.165913           31.72611
      6       0.00000           1.165913           31.72611
      7       0.00000           1.188611           32.34376
      8       0.00000           1.515114           41.22834
      9       0.00000           1.515114           41.22834
     10       0.00000           1.575719           42.87751
     11       0.00000           1.691071           46.01638

  Current spin moment of the entire structure :
  | N = N_up - N_down :    2.00
  | S                 :    1.00
  | J                 :    3.00

  Highest occupied state (VBM) at     -0.91421699 eV
  | Occupation number:      1.00000000
  | Spin channel:        1

  Lowest unoccupied state (CBM) at     0.12099083 eV
  | Occupation number:      0.00000000
  | Spin channel:        1

  Overall HOMO-LUMO gap:      1.03520783 eV.
  Calculating total energy contributions from superposition of free atom densities.

  Total energy components:
  | Sum of eigenvalues            :          -0.68040431 Ha         -18.51474338 eV
  | XC energy correction          :          -0.69796647 Ha         -18.99263390 eV
  | XC potential correction       :           0.90090088 Ha          24.51476033 eV
  | Free-atom electrostatic energy:          -0.24019047 Ha          -6.53591530 eV
  | Hartree energy correction     :           0.00000000 Ha           0.00000000 eV
  | van der Waals energy corr.    :           0.00000000 Ha           0.00000000 eV
  | Entropy correction            :           0.00000000 Ha           0.00000000 eV
  | ---------------------------
  | Total energy                  :          -0.71766037 Ha         -19.52853225 eV
  | Total energy, T -> 0          :          -0.71766037 Ha         -19.52853225 eV  <-- do not rely on this value for anything but (periodic) metals
  | Electronic free energy        :          -0.71766037 Ha         -19.52853225 eV

  Derived energy quantities:
  | Kinetic energy                :           1.23878180 Ha          33.70896790 eV
  | Electrostatic energy          :          -1.25847570 Ha         -34.24486625 eV
  | Energy correction for multipole
  | error in Hartree potential    :           0.00000000 Ha           0.00000000 eV
  | Sum of eigenvalues per atom                           :          -9.25737169 eV
  | Total energy (T->0) per atom                          :          -9.76426612 eV  <-- do not rely on this value for anything but (periodic) metals
  | Electronic free energy per atom                       :          -9.76426612 eV
  Initialize hartree_potential_storage
  Max. number of atoms included in rho_multipole:            2

  End scf initialization - timings             :  max(cpu_time)    wall_clock(cpu1)
  | Time for scf. initialization               :        0.040 s           0.040 s
  | Boundary condition initialization          :        0.000 s           0.000 s
  | Integration                                :        0.014 s           0.014 s
  | Solution of K.-S. eqns.                    :        0.007 s           0.008 s
  | Grid partitioning                          :        0.007 s           0.007 s
  | Preloading free-atom quantities on grid    :        0.004 s           0.003 s
  | Free-atom superposition energy             :        0.002 s           0.003 s
  | Total energy evaluation                    :        0.000 s           0.000 s
------------------------------------------------------------

------------------------------------------------------------
          Begin self-consistency iteration #    1

  Date     :  20220120, Time     :  153601.421
------------------------------------------------------------
  Evaluating new KS density.
  Integration grid: deviation in total charge (<rho> - N_e) =   3.440732E-07
  | <rho_up-rho_dn> = N_up-N_dn =      2.0000; <|rho_up-rho_dn|> =      2.1420
  Pulay mixing of updated and previous charge densities.

  Evaluating partitioned Hartree potential by multipole expansion.
  | Analytical far-field extrapolation by fixed multipoles:
  | Hartree multipole sum: apparent total charge =  -0.132873E-04
  Summing up the Hartree potential.
  Time summed over all CPUs for potential: real work        0.033 s, elapsed        0.034 s
  | RMS charge density error from multipole expansion :   0.821677E-03

  Integrating Hamiltonian matrix: batch-based integration.
  Time summed over all CPUs for integration: real work        0.065 s, elapsed        0.071 s

  Updating Kohn-Sham eigenvalues, eigenvectors, occupation numbers, and Fermi level.
  Solving generalized eigenproblem
  Solving real symmetric generalised eigenvalue problem by standard ScaLAPACK.
  Using Cholesky factor for transformation
  Using 1-stage real ELPA solver
  Solving real symmetric generalised eigenvalue problem by standard ScaLAPACK.
  Using Cholesky factor for transformation
  Using 1-stage real ELPA solver
  Determining occupation numbers for Kohn-Sham eigenstates.
  | Chemical potential (Fermi level) in eV                 : -.64226550E+01
  | Error in electron count due to remaining E_F inaccuracy: 0.00000000E+00
  | Maximum occupation number of highest empty state:  0.00E+00

  Writing Kohn-Sham eigenvalues.

  Spin-up eigenvalues:

  State    Occupation    Eigenvalue [Ha]    Eigenvalue [eV]
      1       1.00000          -0.529465          -14.40747
      2       0.00000           0.062636            1.70443
      3       0.00000           0.065090            1.77120
      4       0.00000           0.175712            4.78138
      5       0.00000           0.231972            6.31229
      6       0.00000           0.231972            6.31229
      7       0.00000           0.349889            9.52096
      8       0.00000           0.568196           15.46140
      9       0.00000           0.758330           20.63521
     10       0.00000           0.758330           20.63521
     11       0.00000           0.821387           22.35109

  Spin-down eigenvalues:

  State    Occupation    Eigenvalue [Ha]    Eigenvalue [eV]
      1       1.00000          -0.314131           -8.54793
      2       0.00000           0.083369            2.26860
      3       0.00000           0.090058            2.45059
      4       0.00000           0.247253            6.72809
      5       0.00000           0.342134            9.30995
      6       0.00000           0.342134            9.30995
      7       0.00000           0.409622           11.14639
      8       0.00000           0.690636           18.79316
      9       0.00000           0.846630           23.03798
     10       0.00000           0.846630           23.03798
     11       0.00000           0.885936           24.10754

  Current spin moment of the entire structure :
  | N = N_up - N_down :    0.00
  | S                 :    0.00
  | J                 :    1.00

  Highest occupied state (VBM) at     -8.54792812 eV
  | Occupation number:      1.00000000
  | Spin channel:        2

  Lowest unoccupied state (CBM) at     1.70442512 eV
  | Occupation number:      0.00000000
  | Spin channel:        1

  Overall HOMO-LUMO gap:     10.25235324 eV.

  Total energy components:
  | Sum of eigenvalues            :          -0.84359555 Ha         -22.95540299 eV
  | XC energy correction          :          -0.48191475 Ha         -13.11356764 eV
  | XC potential correction       :           0.62023057 Ha          16.87733242 eV
  | Free-atom electrostatic energy:          -0.24019047 Ha          -6.53591530 eV
  | Hartree energy correction     :           0.03120619 Ha           0.84916355 eV
  | van der Waals energy corr.    :           0.00000000 Ha           0.00000000 eV
  | Entropy correction            :           0.00000000 Ha           0.00000000 eV
  | ---------------------------
  | Total energy                  :          -0.91426403 Ha         -24.87838996 eV
  | Total energy, T -> 0          :          -0.91426403 Ha         -24.87838996 eV  <-- do not rely on this value for anything but (periodic) metals
  | Electronic free energy        :          -0.91426403 Ha         -24.87838996 eV

  Derived energy quantities:
  | Kinetic energy                :           0.87723181 Ha          23.87069209 eV
  | Electrostatic energy          :          -1.30958108 Ha         -35.63551441 eV
  | Energy correction for multipole
  | error in Hartree potential    :          -0.00015003 Ha          -0.00408250 eV
  | Sum of eigenvalues per atom                           :         -11.47770149 eV
  | Total energy (T->0) per atom                          :         -12.43919498 eV  <-- do not rely on this value for anything but (periodic) metals
  | Electronic free energy per atom                       :         -12.43919498 eV

  Self-consistency convergence accuracy:
  | Change of charge/spin density : 0.6529E-01 0.6529E-01
  | Change of sum of eigenvalues  : -.4441E+01 eV
  | Change of total energy        : -.5350E+01 eV

  End self-consistency iteration #     1       :  max(cpu_time)    wall_clock(cpu1)
  | Time for this iteration                    :        0.026 s           0.026 s
  | Charge density update                      :        0.007 s           0.006 s
  | Density mixing                             :        0.001 s           0.001 s
  | Hartree multipole update                   :        0.001 s           0.001 s
  | Hartree multipole summation                :        0.005 s           0.005 s
  | Integration                                :        0.009 s           0.009 s
  | Solution of K.-S. eqns.                    :        0.001 s           0.002 s
  | Total energy evaluation                    :        0.000 s           0.001 s
------------------------------------------------------------

------------------------------------------------------------
          Begin self-consistency iteration #    2

  Date     :  20220120, Time     :  153601.450
------------------------------------------------------------
  Evaluating new KS density.
  Integration grid: deviation in total charge (<rho> - N_e) =   2.064439E-07
  | <rho_up-rho_dn> = N_up-N_dn =     -2.0000; <|rho_up-rho_dn|> =      2.0000
  Pulay mixing of updated and previous charge densities.

  Evaluating partitioned Hartree potential by multipole expansion.
  | Analytical far-field extrapolation by fixed multipoles:
  | Hartree multipole sum: apparent total charge =  -0.130845E-04
  Summing up the Hartree potential.
  Time summed over all CPUs for potential: real work        0.032 s, elapsed        0.033 s
  | RMS charge density error from multipole expansion :   0.804963E-03

  Integrating Hamiltonian matrix: batch-based integration.
  Time summed over all CPUs for integration: real work        0.067 s, elapsed        0.071 s

  Updating Kohn-Sham eigenvalues, eigenvectors, occupation numbers, and Fermi level.
  Solving generalized eigenproblem
  Solving real symmetric generalised eigenvalue problem by standard ScaLAPACK.
  Using Cholesky factor for transformation
  Using 1-stage real ELPA solver
  Solving real symmetric generalised eigenvalue problem by standard ScaLAPACK.
  Using Cholesky factor for transformation
  Using 1-stage real ELPA solver
  Determining occupation numbers for Kohn-Sham eigenstates.
  | Chemical potential (Fermi level) in eV                 : -.86967346E+01
  | Error in electron count due to remaining E_F inaccuracy: 0.00000000E+00
  | Maximum occupation number of highest empty state:  0.00E+00

  Current spin moment of the entire structure :
  | N = N_up - N_down :    0.00
  | S                 :    0.00
  | J                 :    1.00

  Highest occupied state (VBM) at    -10.05951828 eV
  | Occupation number:      1.00000000
  | Spin channel:        2

  Lowest unoccupied state (CBM) at     1.28931840 eV
  | Occupation number:      0.00000000
  | Spin channel:        1

  Overall HOMO-LUMO gap:     11.34883668 eV.

  Total energy components:
  | Sum of eigenvalues            :          -1.00071269 Ha         -27.23077768 eV
  | XC energy correction          :          -0.58139223 Ha         -15.82048743 eV
  | XC potential correction       :           0.75061963 Ha          20.42539942 eV
  | Free-atom electrostatic energy:          -0.24019047 Ha          -6.53591530 eV
  | Hartree energy correction     :           0.02704038 Ha           0.73580623 eV
  | van der Waals energy corr.    :           0.00000000 Ha           0.00000000 eV
  | Entropy correction            :           0.00000000 Ha           0.00000000 eV
  | ---------------------------
  | Total energy                  :          -1.04463537 Ha         -28.42597475 eV
  | Total energy, T -> 0          :          -1.04463537 Ha         -28.42597475 eV  <-- do not rely on this value for anything but (periodic) metals
  | Electronic free energy        :          -1.04463537 Ha         -28.42597475 eV

  Derived energy quantities:
  | Kinetic energy                :           0.85150670 Ha          23.17067631 eV
  | Electrostatic energy          :          -1.31474985 Ha         -35.77616364 eV
  | Energy correction for multipole
  | error in Hartree potential    :          -0.00014625 Ha          -0.00397970 eV
  | Sum of eigenvalues per atom                           :         -13.61538884 eV
  | Total energy (T->0) per atom                          :         -14.21298738 eV  <-- do not rely on this value for anything but (periodic) metals
  | Electronic free energy per atom                       :         -14.21298738 eV

  Self-consistency convergence accuracy:
  | Change of charge/spin density : 0.1260E+00 0.2943E+00
  | Change of sum of eigenvalues  : -.4275E+01 eV
  | Change of total energy        : -.3548E+01 eV

  End self-consistency iteration #     2       :  max(cpu_time)    wall_clock(cpu1)
  | Time for this iteration                    :        0.025 s           0.024 s
  | Charge density update                      :        0.006 s           0.006 s
  | Density mixing                             :        0.001 s           0.001 s
  | Hartree multipole update                   :        0.001 s           0.001 s
  | Hartree multipole summation                :        0.004 s           0.004 s
  | Integration                                :        0.009 s           0.009 s
  | Solution of K.-S. eqns.                    :        0.001 s           0.002 s
  | Total energy evaluation                    :        0.000 s           0.001 s
------------------------------------------------------------

------------------------------------------------------------
          Begin self-consistency iteration #    3

  Date     :  20220120, Time     :  153601.480
------------------------------------------------------------
  Evaluating new KS density.
  Integration grid: deviation in total charge (<rho> - N_e) =   2.033754E-07
  | <rho_up-rho_dn> = N_up-N_dn =     -1.9554; <|rho_up-rho_dn|> =      1.9554
  Pulay mixing of updated and previous charge densities.

  Evaluating partitioned Hartree potential by multipole expansion.
  | Analytical far-field extrapolation by fixed multipoles:
  | Hartree multipole sum: apparent total charge =  -0.131589E-04
  Summing up the Hartree potential.
  Time summed over all CPUs for potential: real work        0.033 s, elapsed        0.033 s
  | RMS charge density error from multipole expansion :   0.770041E-03

  Integrating Hamiltonian matrix: batch-based integration.
  Time summed over all CPUs for integration: real work        0.066 s, elapsed        0.071 s

  Updating Kohn-Sham eigenvalues, eigenvectors, occupation numbers, and Fermi level.
  Solving generalized eigenproblem
  Solving real symmetric generalised eigenvalue problem by standard ScaLAPACK.
  Using Cholesky factor for transformation
  Using 1-stage real ELPA solver
  Solving real symmetric generalised eigenvalue problem by standard ScaLAPACK.
  Using Cholesky factor for transformation
  Using 1-stage real ELPA solver
  Determining occupation numbers for Kohn-Sham eigenstates.
  | Chemical potential (Fermi level) in eV                 : -.79018296E+01
  | Error in electron count due to remaining E_F inaccuracy: 0.00000000E+00
  | Maximum occupation number of highest empty state:  0.00E+00

  Current spin moment of the entire structure :
  | N = N_up - N_down :    0.00
  | S                 :    0.00
  | J                 :    1.00

  Highest occupied state (VBM) at     -9.58647634 eV
  | Occupation number:      1.00000000
  | Spin channel:        2

  Lowest unoccupied state (CBM) at     1.30214504 eV
  | Occupation number:      0.00000000
  | Spin channel:        1

  Overall HOMO-LUMO gap:     10.88862138 eV.

  Total energy components:
  | Sum of eigenvalues            :          -0.94593598 Ha         -25.74022758 eV
  | XC energy correction          :          -0.54736374 Ha         -14.89452524 eV
  | XC potential correction       :           0.70583737 Ha          19.20681211 eV
  | Free-atom electrostatic energy:          -0.24019047 Ha          -6.53591530 eV
  | Hartree energy correction     :           0.03271019 Ha           0.89008947 eV
  | van der Waals energy corr.    :           0.00000000 Ha           0.00000000 eV
  | Entropy correction            :           0.00000000 Ha           0.00000000 eV
  | ---------------------------
  | Total energy                  :          -0.99494263 Ha         -27.07376653 eV
  | Total energy, T -> 0          :          -0.99494263 Ha         -27.07376653 eV  <-- do not rely on this value for anything but (periodic) metals
  | Electronic free energy        :          -0.99494263 Ha         -27.07376653 eV

  Derived energy quantities:
  | Kinetic energy                :           0.85370327 Ha          23.23044786 eV
  | Electrostatic energy          :          -1.30128216 Ha         -35.40968916 eV
  | Energy correction for multipole
  | error in Hartree potential    :          -0.00013737 Ha          -0.00373797 eV
  | Sum of eigenvalues per atom                           :         -12.87011379 eV
  | Total energy (T->0) per atom                          :         -13.53688326 eV  <-- do not rely on this value for anything but (periodic) metals
  | Electronic free energy per atom                       :         -13.53688326 eV

  Self-consistency convergence accuracy:
  | Change of charge/spin density : 0.1829E+00 0.2764E+00
  | Change of sum of eigenvalues  : 0.1491E+01 eV
  | Change of total energy        : 0.1352E+01 eV

  End self-consistency iteration #     3       :  max(cpu_time)    wall_clock(cpu1)
  | Time for this iteration                    :        0.026 s           0.025 s
  | Charge density update                      :        0.007 s           0.006 s
  | Density mixing                             :        0.001 s           0.001 s
  | Hartree multipole update                   :        0.001 s           0.002 s
  | Hartree multipole summation                :        0.004 s           0.004 s
  | Integration                                :        0.009 s           0.009 s
  | Solution of K.-S. eqns.                    :        0.001 s           0.002 s
  | Total energy evaluation                    :        0.000 s           0.001 s
------------------------------------------------------------

------------------------------------------------------------
          Begin self-consistency iteration #    4

  Date     :  20220120, Time     :  153601.510
------------------------------------------------------------
  Evaluating new KS density.
  Integration grid: deviation in total charge (<rho> - N_e) =   2.036611E-07
  | <rho_up-rho_dn> = N_up-N_dn =     -1.9580; <|rho_up-rho_dn|> =      1.9580
  Pulay mixing of updated and previous charge densities.

  Evaluating partitioned Hartree potential by multipole expansion.
  | Analytical far-field extrapolation by fixed multipoles:
  | Hartree multipole sum: apparent total charge =  -0.127848E-04
  Summing up the Hartree potential.
  Time summed over all CPUs for potential: real work        0.033 s, elapsed        0.033 s
  | RMS charge density error from multipole expansion :   0.486366E-03

  Integrating Hamiltonian matrix: batch-based integration.
  Time summed over all CPUs for integration: real work        0.067 s, elapsed        0.072 s

  Updating Kohn-Sham eigenvalues, eigenvectors, occupation numbers, and Fermi level.
  Solving generalized eigenproblem
  Solving real symmetric generalised eigenvalue problem by standard ScaLAPACK.
  Using Cholesky factor for transformation
  Using 1-stage real ELPA solver
  Solving real symmetric generalised eigenvalue problem by standard ScaLAPACK.
  Using Cholesky factor for transformation
  Using 1-stage real ELPA solver
  Determining occupation numbers for Kohn-Sham eigenstates.
  | Chemical potential (Fermi level) in eV                 : -.72635147E+01
  | Error in electron count due to remaining E_F inaccuracy: 0.00000000E+00
  | Maximum occupation number of highest empty state:  0.00E+00

  Current spin moment of the entire structure :
  | N = N_up - N_down :    0.00
  | S                 :    0.00
  | J                 :    1.00

  Highest occupied state (VBM) at    -10.73548289 eV
  | Occupation number:      1.00000000
  | Spin channel:        2

  Lowest unoccupied state (CBM) at     0.30163389 eV
  | Occupation number:      0.00000000
  | Spin channel:        1

  Overall HOMO-LUMO gap:     11.03711678 eV.

  Total energy components:
  | Sum of eigenvalues            :          -0.93932404 Ha         -25.56030751 eV
  | XC energy correction          :          -0.50279301 Ha         -13.68169395 eV
  | XC potential correction       :           0.64685245 Ha          17.60175081 eV
  | Free-atom electrostatic energy:          -0.24019047 Ha          -6.53591530 eV
  | Hartree energy correction     :           0.06924008 Ha           1.88411842 eV
  | van der Waals energy corr.    :           0.00000000 Ha           0.00000000 eV
  | Entropy correction            :           0.00000000 Ha           0.00000000 eV
  | ---------------------------
  | Total energy                  :          -0.96621499 Ha         -26.29204752 eV
  | Total energy, T -> 0          :          -0.96621499 Ha         -26.29204752 eV  <-- do not rely on this value for anything but (periodic) metals
  | Electronic free energy        :          -0.96621499 Ha         -26.29204752 eV

  Derived energy quantities:
  | Kinetic energy                :           0.68482739 Ha          18.63510134 eV
  | Electrostatic energy          :          -1.14824936 Ha         -31.24545491 eV
  | Energy correction for multipole
  | error in Hartree potential    :           0.00000885 Ha           0.00024087 eV
  | Sum of eigenvalues per atom                           :         -12.78015375 eV
  | Total energy (T->0) per atom                          :         -13.14602376 eV  <-- do not rely on this value for anything but (periodic) metals
  | Electronic free energy per atom                       :         -13.14602376 eV

  Self-consistency convergence accuracy:
  | Change of charge/spin density : 0.1594E+00 0.2801E+00
  | Change of sum of eigenvalues  : 0.1799E+00 eV
  | Change of total energy        : 0.7817E+00 eV

  End self-consistency iteration #     4       :  max(cpu_time)    wall_clock(cpu1)
  | Time for this iteration                    :        0.026 s           0.025 s
  | Charge density update                      :        0.007 s           0.006 s
  | Density mixing                             :        0.001 s           0.001 s
  | Hartree multipole update                   :        0.001 s           0.001 s
  | Hartree multipole summation                :        0.004 s           0.004 s
  | Integration                                :        0.009 s           0.009 s
  | Solution of K.-S. eqns.                    :        0.001 s           0.002 s
  | Total energy evaluation                    :        0.000 s           0.001 s
------------------------------------------------------------

------------------------------------------------------------
          Begin self-consistency iteration #    5

  Date     :  20220120, Time     :  153601.540
------------------------------------------------------------
  Evaluating new KS density.
  Integration grid: deviation in total charge (<rho> - N_e) =   1.852420E-07
  | <rho_up-rho_dn> = N_up-N_dn =     -1.7184; <|rho_up-rho_dn|> =      1.7184
  Pulay mixing of updated and previous charge densities.

  Evaluating partitioned Hartree potential by multipole expansion.
  | Analytical far-field extrapolation by fixed multipoles:
  | Hartree multipole sum: apparent total charge =  -0.115214E-04
  Summing up the Hartree potential.
  Time summed over all CPUs for potential: real work        0.032 s, elapsed        0.033 s
  | RMS charge density error from multipole expansion :   0.338652E-02

  Integrating Hamiltonian matrix: batch-based integration.
  Time summed over all CPUs for integration: real work        0.069 s, elapsed        0.075 s

  Updating Kohn-Sham eigenvalues, eigenvectors, occupation numbers, and Fermi level.
  Solving generalized eigenproblem
  Solving real symmetric generalised eigenvalue problem by standard ScaLAPACK.
  Using Cholesky factor for transformation
  Using 1-stage real ELPA solver
  Solving real symmetric generalised eigenvalue problem by standard ScaLAPACK.
  Using Cholesky factor for transformation
  Using 1-stage real ELPA solver
  Determining occupation numbers for Kohn-Sham eigenstates.
  | Chemical potential (Fermi level) in eV                 : -.15298038E+02
  | Error in electron count due to remaining E_F inaccuracy: 0.00000000E+00
  | Maximum occupation number of highest empty state:  0.00E+00

  Current spin moment of the entire structure :
  | N = N_up - N_down :    0.00
  | S                 :    0.00
  | J                 :    1.00

  Highest occupied state (VBM) at    -16.46078633 eV
  | Occupation number:      1.00000000
  | Spin channel:        2

  Lowest unoccupied state (CBM) at    -1.51055497 eV
  | Occupation number:      0.00000000
  | Spin channel:        1

  Overall HOMO-LUMO gap:     14.95023136 eV.

  Total energy components:
  | Sum of eigenvalues            :          -1.26416177 Ha         -34.39959203 eV
  | XC energy correction          :          -0.59123948 Ha         -16.08844476 eV
  | XC potential correction       :           0.75927603 Ha          20.66095209 eV
  | Free-atom electrostatic energy:          -0.24019047 Ha          -6.53591530 eV
  | Hartree energy correction     :           0.16713034 Ha           4.54784797 eV
  | van der Waals energy corr.    :           0.00000000 Ha           0.00000000 eV
  | Entropy correction            :           0.00000000 Ha           0.00000000 eV
  | ---------------------------
  | Total energy                  :          -1.16918535 Ha         -31.81515203 eV
  | Total energy, T -> 0          :          -1.16918535 Ha         -31.81515203 eV  <-- do not rely on this value for anything but (periodic) metals
  | Electronic free energy        :          -1.16918535 Ha         -31.81515203 eV

  Derived energy quantities:
  | Kinetic energy                :          -0.38855484 Ha         -10.57311527 eV
  | Electrostatic energy          :          -0.18939103 Ha          -5.15359200 eV
  | Energy correction for multipole
  | error in Hartree potential    :           0.00074399 Ha           0.02024487 eV
  | Sum of eigenvalues per atom                           :         -17.19979602 eV
  | Total energy (T->0) per atom                          :         -15.90757602 eV  <-- do not rely on this value for anything but (periodic) metals
  | Electronic free energy per atom                       :         -15.90757602 eV

  Self-consistency convergence accuracy:
  | Change of charge/spin density : 0.1745E+00 0.2545E+00
  | Change of sum of eigenvalues  : -.8839E+01 eV
  | Change of total energy        : -.5523E+01 eV

  End self-consistency iteration #     5       :  max(cpu_time)    wall_clock(cpu1)
  | Time for this iteration                    :        0.026 s           0.025 s
  | Charge density update                      :        0.006 s           0.006 s
  | Density mixing                             :        0.001 s           0.001 s
  | Hartree multipole update                   :        0.001 s           0.002 s
  | Hartree multipole summation                :        0.004 s           0.004 s
  | Integration                                :        0.010 s           0.010 s
  | Solution of K.-S. eqns.                    :        0.001 s           0.001 s
  | Total energy evaluation                    :        0.000 s           0.000 s
------------------------------------------------------------

------------------------------------------------------------
          Begin self-consistency iteration #    6

  Date     :  20220120, Time     :  153601.570
------------------------------------------------------------
  Evaluating new KS density.
  Integration grid: deviation in total charge (<rho> - N_e) =   9.757875E-08
  | <rho_up-rho_dn> = N_up-N_dn =     -0.7109; <|rho_up-rho_dn|> =      0.8737
  Pulay mixing of updated and previous charge densities.

  Evaluating partitioned Hartree potential by multipole expansion.
  | Analytical far-field extrapolation by fixed multipoles:
  | Hartree multipole sum: apparent total charge =  -0.122424E-04
  Summing up the Hartree potential.
  Time summed over all CPUs for potential: real work        0.033 s, elapsed        0.033 s
  | RMS charge density error from multipole expansion :   0.593819E-02

  Integrating Hamiltonian matrix: batch-based integration.
  Time summed over all CPUs for integration: real work        0.071 s, elapsed        0.076 s

  Updating Kohn-Sham eigenvalues, eigenvectors, occupation numbers, and Fermi level.
  Solving generalized eigenproblem
  Solving real symmetric generalised eigenvalue problem by standard ScaLAPACK.
  Using Cholesky factor for transformation
  Using 1-stage real ELPA solver
  Solving real symmetric generalised eigenvalue problem by standard ScaLAPACK.
  Using Cholesky factor for transformation
  Using 1-stage real ELPA solver
  Determining occupation numbers for Kohn-Sham eigenstates.
  | Chemical potential (Fermi level) in eV                 : -.19105408E+02
  | Error in electron count due to remaining E_F inaccuracy: 0.00000000E+00
  | Maximum occupation number of highest empty state:  0.00E+00

  Current spin moment of the entire structure :
  | N = N_up - N_down :    0.00
  | S                 :    0.00
  | J                 :    1.00

  Highest occupied state (VBM) at    -20.78566885 eV
  | Occupation number:      1.00000000
  | Spin channel:        2

  Lowest unoccupied state (CBM) at    -2.54553605 eV
  | Occupation number:      0.00000000
  | Spin channel:        1

  Overall HOMO-LUMO gap:     18.24013279 eV.

  Total energy components:
  | Sum of eigenvalues            :          -1.57033554 Ha         -42.73100407 eV
  | XC energy correction          :          -0.69254849 Ha         -18.84520329 eV
  | XC potential correction       :           0.88992067 Ha          24.21597354 eV
  | Free-atom electrostatic energy:          -0.24019047 Ha          -6.53591530 eV
  | Hartree energy correction     :           0.13894956 Ha           3.78100978 eV
  | van der Waals energy corr.    :           0.00000000 Ha           0.00000000 eV
  | Entropy correction            :           0.00000000 Ha           0.00000000 eV
  | ---------------------------
  | Total energy                  :          -1.47420427 Ha         -40.11513934 eV
  | Total energy, T -> 0          :          -1.47420427 Ha         -40.11513934 eV  <-- do not rely on this value for anything but (periodic) metals
  | Electronic free energy        :          -1.47420427 Ha         -40.11513934 eV

  Derived energy quantities:
  | Kinetic energy                :          -1.49047791 Ha         -40.55796749 eV
  | Electrostatic energy          :           0.70882213 Ha          19.28803143 eV
  | Energy correction for multipole
  | error in Hartree potential    :           0.00132655 Ha           0.03609733 eV
  | Sum of eigenvalues per atom                           :         -21.36550203 eV
  | Total energy (T->0) per atom                          :         -20.05756967 eV  <-- do not rely on this value for anything but (periodic) metals
  | Electronic free energy per atom                       :         -20.05756967 eV

  Self-consistency convergence accuracy:
  | Change of charge/spin density : 0.5662E+00 0.1449E+00
  | Change of sum of eigenvalues  : -.8331E+01 eV
  | Change of total energy        : -.8300E+01 eV

  End self-consistency iteration #     6       :  max(cpu_time)    wall_clock(cpu1)
  | Time for this iteration                    :        0.026 s           0.026 s
  | Charge density update                      :        0.007 s           0.006 s
  | Density mixing                             :        0.002 s           0.002 s
  | Hartree multipole update                   :        0.001 s           0.001 s
  | Hartree multipole summation                :        0.004 s           0.005 s
  | Integration                                :        0.010 s           0.009 s
  | Solution of K.-S. eqns.                    :        0.001 s           0.002 s
  | Total energy evaluation                    :        0.000 s           0.001 s
------------------------------------------------------------

------------------------------------------------------------
          Begin self-consistency iteration #    7

  Date     :  20220120, Time     :  153601.600
------------------------------------------------------------
  Evaluating new KS density.
  Integration grid: deviation in total charge (<rho> - N_e) =   6.056704E-08
  | <rho_up-rho_dn> = N_up-N_dn =     -0.3965; <|rho_up-rho_dn|> =      0.9173
  Pulay mixing of updated and previous charge densities.

  Evaluating partitioned Hartree potential by multipole expansion.
  | Analytical far-field extrapolation by fixed multipoles:
  | Hartree multipole sum: apparent total charge =  -0.122014E-04
  Summing up the Hartree potential.
  Time summed over all CPUs for potential: real work        0.033 s, elapsed        0.033 s
  | RMS charge density error from multipole expansion :   0.588261E-02

  Integrating Hamiltonian matrix: batch-based integration.
  Time summed over all CPUs for integration: real work        0.071 s, elapsed        0.076 s

  Updating Kohn-Sham eigenvalues, eigenvectors, occupation numbers, and Fermi level.
  Solving generalized eigenproblem
  Solving real symmetric generalised eigenvalue problem by standard ScaLAPACK.
  Using Cholesky factor for transformation
  Using 1-stage real ELPA solver
  Solving real symmetric generalised eigenvalue problem by standard ScaLAPACK.
  Using Cholesky factor for transformation
  Using 1-stage real ELPA solver
  Determining occupation numbers for Kohn-Sham eigenstates.
  | Chemical potential (Fermi level) in eV                 : -.19037465E+02
  | Error in electron count due to remaining E_F inaccuracy: 0.00000000E+00
  | Maximum occupation number of highest empty state:  0.00E+00

  Current spin moment of the entire structure :
  | N = N_up - N_down :    0.00
  | S                 :    0.00
  | J                 :    1.00

  Highest occupied state (VBM) at    -20.68066006 eV
  | Occupation number:      1.00000000
  | Spin channel:        2

  Lowest unoccupied state (CBM) at    -2.52791281 eV
  | Occupation number:      0.00000000
  | Spin channel:        1

  Overall HOMO-LUMO gap:     18.15274724 eV.

  Total energy components:
  | Sum of eigenvalues            :          -1.56386866 Ha         -42.55503133 eV
  | XC energy correction          :          -0.69022527 Ha         -18.78198517 eV
  | XC potential correction       :           0.88693124 Ha          24.13462688 eV
  | Free-atom electrostatic energy:          -0.24019047 Ha          -6.53591530 eV
  | Hartree energy correction     :           0.14060154 Ha           3.82596263 eV
  | van der Waals energy corr.    :           0.00000000 Ha           0.00000000 eV
  | Entropy correction            :           0.00000000 Ha           0.00000000 eV
  | ---------------------------
  | Total energy                  :          -1.46675162 Ha         -39.91234229 eV
  | Total energy, T -> 0          :          -1.46675162 Ha         -39.91234229 eV  <-- do not rely on this value for anything but (periodic) metals
  | Electronic free energy        :          -1.46675162 Ha         -39.91234229 eV

  Derived energy quantities:
  | Kinetic energy                :          -1.46347951 Ha         -39.82330378 eV
  | Electrostatic energy          :           0.68695316 Ha          18.69294666 eV
  | Energy correction for multipole
  | error in Hartree potential    :           0.00131408 Ha           0.03575806 eV
  | Sum of eigenvalues per atom                           :         -21.27751567 eV
  | Total energy (T->0) per atom                          :         -19.95617115 eV  <-- do not rely on this value for anything but (periodic) metals
  | Electronic free energy per atom                       :         -19.95617115 eV

  Self-consistency convergence accuracy:
  | Change of charge/spin density : 0.8885E+00 0.2459E+00
  | Change of sum of eigenvalues  : 0.1760E+00 eV
  | Change of total energy        : 0.2028E+00 eV

  End self-consistency iteration #     7       :  max(cpu_time)    wall_clock(cpu1)
  | Time for this iteration                    :        0.026 s           0.026 s
  | Charge density update                      :        0.006 s           0.006 s
  | Density mixing                             :        0.002 s           0.002 s
  | Hartree multipole update                   :        0.001 s           0.001 s
  | Hartree multipole summation                :        0.004 s           0.005 s
  | Integration                                :        0.010 s           0.009 s
  | Solution of K.-S. eqns.                    :        0.001 s           0.002 s
  | Total energy evaluation                    :        0.000 s           0.001 s
------------------------------------------------------------

------------------------------------------------------------
          Begin self-consistency iteration #    8

  Date     :  20220120, Time     :  153601.630
------------------------------------------------------------
  Evaluating new KS density.
  Integration grid: deviation in total charge (<rho> - N_e) =   6.097127E-08
  | <rho_up-rho_dn> = N_up-N_dn =     -0.3995; <|rho_up-rho_dn|> =      0.9142
  Pulay mixing of updated and previous charge densities.

  Evaluating partitioned Hartree potential by multipole expansion.
  | Analytical far-field extrapolation by fixed multipoles:
  | Hartree multipole sum: apparent total charge =  -0.122267E-04
  Summing up the Hartree potential.
  Time summed over all CPUs for potential: real work        0.032 s, elapsed        0.033 s
  | RMS charge density error from multipole expansion :   0.585633E-02

  Integrating Hamiltonian matrix: batch-based integration.
  Time summed over all CPUs for integration: real work        0.070 s, elapsed        0.076 s

  Updating Kohn-Sham eigenvalues, eigenvectors, occupation numbers, and Fermi level.
  Solving generalized eigenproblem
  Solving real symmetric generalised eigenvalue problem by standard ScaLAPACK.
  Using Cholesky factor for transformation
  Using 1-stage real ELPA solver
  Solving real symmetric generalised eigenvalue problem by standard ScaLAPACK.
  Using Cholesky factor for transformation
  Using 1-stage real ELPA solver
  Determining occupation numbers for Kohn-Sham eigenstates.
  | Chemical potential (Fermi level) in eV                 : -.19005032E+02
  | Error in electron count due to remaining E_F inaccuracy: 0.00000000E+00
  | Maximum occupation number of highest empty state:  0.00E+00

  Current spin moment of the entire structure :
  | N = N_up - N_down :    0.00
  | S                 :    0.00
  | J                 :    1.00

  Highest occupied state (VBM) at    -20.63535849 eV
  | Occupation number:      1.00000000
  | Spin channel:        2

  Lowest unoccupied state (CBM) at    -2.52282954 eV
  | Occupation number:      0.00000000
  | Spin channel:        1

  Overall HOMO-LUMO gap:     18.11252895 eV.

  Total energy components:
  | Sum of eigenvalues            :          -1.56094965 Ha         -42.47560099 eV
  | XC energy correction          :          -0.68906618 Ha         -18.75044478 eV
  | XC potential correction       :           0.88543535 Ha          24.09392163 eV
  | Free-atom electrostatic energy:          -0.24019047 Ha          -6.53591530 eV
  | Hartree energy correction     :           0.14169822 Ha           3.85580476 eV
  | van der Waals energy corr.    :           0.00000000 Ha           0.00000000 eV
  | Entropy correction            :           0.00000000 Ha           0.00000000 eV
  | ---------------------------
  | Total energy                  :          -1.46307273 Ha         -39.81223467 eV
  | Total energy, T -> 0          :          -1.46307273 Ha         -39.81223467 eV  <-- do not rely on this value for anything but (periodic) metals
  | Electronic free energy        :          -1.46307273 Ha         -39.81223467 eV

  Derived energy quantities:
  | Kinetic energy                :          -1.45325507 Ha         -39.54508256 eV
  | Electrostatic energy          :           0.67924852 Ha          18.48329266 eV
  | Energy correction for multipole
  | error in Hartree potential    :           0.00130826 Ha           0.03559969 eV
  | Sum of eigenvalues per atom                           :         -21.23780050 eV
  | Total energy (T->0) per atom                          :         -19.90611734 eV  <-- do not rely on this value for anything but (periodic) metals
  | Electronic free energy per atom                       :         -19.90611734 eV

  Self-consistency convergence accuracy:
  | Change of charge/spin density : 0.8813E+00 0.2436E+00
  | Change of sum of eigenvalues  : 0.7943E-01 eV
  | Change of total energy        : 0.1001E+00 eV

  End self-consistency iteration #     8       :  max(cpu_time)    wall_clock(cpu1)
  | Time for this iteration                    :        0.027 s           0.026 s
  | Charge density update                      :        0.007 s           0.006 s
  | Density mixing                             :        0.002 s           0.002 s
  | Hartree multipole update                   :        0.001 s           0.001 s
  | Hartree multipole summation                :        0.004 s           0.004 s
  | Integration                                :        0.010 s           0.010 s
  | Solution of K.-S. eqns.                    :        0.001 s           0.001 s
  | Total energy evaluation                    :        0.000 s           0.000 s
------------------------------------------------------------

------------------------------------------------------------
          Begin self-consistency iteration #    9

  Date     :  20220120, Time     :  153601.660
------------------------------------------------------------
  Evaluating new KS density.
  Integration grid: deviation in total charge (<rho> - N_e) =   6.178045E-08
  | <rho_up-rho_dn> = N_up-N_dn =     -0.4060; <|rho_up-rho_dn|> =      0.9159
  Pulay mixing of updated and previous charge densities.

  Evaluating partitioned Hartree potential by multipole expansion.
  | Analytical far-field extrapolation by fixed multipoles:
  | Hartree multipole sum: apparent total charge =  -0.129685E-05
  Summing up the Hartree potential.
  Time summed over all CPUs for potential: real work        0.033 s, elapsed        0.033 s
  | RMS charge density error from multipole expansion :   0.617199E-03

  Integrating Hamiltonian matrix: batch-based integration.
  Time summed over all CPUs for integration: real work        0.072 s, elapsed        0.077 s

  Updating Kohn-Sham eigenvalues, eigenvectors, occupation numbers, and Fermi level.
  Solving generalized eigenproblem
  Solving real symmetric generalised eigenvalue problem by standard ScaLAPACK.
  Using Cholesky factor for transformation
  Using 1-stage real ELPA solver
  Solving real symmetric generalised eigenvalue problem by standard ScaLAPACK.
  Using Cholesky factor for transformation
  Using 1-stage real ELPA solver
  Determining occupation numbers for Kohn-Sham eigenstates.
  | Chemical potential (Fermi level) in eV                 : -.96898985E+01
  | Error in electron count due to remaining E_F inaccuracy: 0.00000000E+00
  | Maximum occupation number of highest empty state:  0.00E+00

  Current spin moment of the entire structure :
  | N = N_up - N_down :    0.00
  | S                 :    0.00
  | J                 :    1.00

  Highest occupied state (VBM) at    -11.89331375 eV
  | Occupation number:      1.00000000
  | Spin channel:        2

  Lowest unoccupied state (CBM) at     0.82865340 eV
  | Occupation number:      0.00000000
  | Spin channel:        1

  Overall HOMO-LUMO gap:     12.72196715 eV.

  Total energy components:
  | Sum of eigenvalues            :          -0.88154311 Ha         -23.98800840 eV
  | XC energy correction          :          -0.69288867 Ha         -18.85445997 eV
  | XC potential correction       :           0.89024271 Ha          24.22473676 eV
  | Free-atom electrostatic energy:          -0.24019047 Ha          -6.53591530 eV
  | Hartree energy correction     :          -0.22838055 Ha          -6.21455103 eV
  | van der Waals energy corr.    :           0.00000000 Ha           0.00000000 eV
  | Entropy correction            :           0.00000000 Ha           0.00000000 eV
  | ---------------------------
  | Total energy                  :          -1.15276009 Ha         -31.36819794 eV
  | Total energy, T -> 0          :          -1.15276009 Ha         -31.36819794 eV  <-- do not rely on this value for anything but (periodic) metals
  | Electronic free energy        :          -1.15276009 Ha         -31.36819794 eV

  Derived energy quantities:
  | Kinetic energy                :           1.02879280 Ha          27.99487638 eV
  | Electrostatic energy          :          -1.48866421 Ha         -40.50861435 eV
  | Energy correction for multipole
  | error in Hartree potential    :           0.00005087 Ha           0.00138425 eV
  | Sum of eigenvalues per atom                           :         -11.99400420 eV
  | Total energy (T->0) per atom                          :         -15.68409897 eV  <-- do not rely on this value for anything but (periodic) metals
  | Electronic free energy per atom                       :         -15.68409897 eV

  Self-consistency convergence accuracy:
  | Change of charge/spin density : 0.8785E+00 0.2425E+00
  | Change of sum of eigenvalues  : 0.1849E+02 eV
  | Change of total energy        : 0.8444E+01 eV

  End self-consistency iteration #     9       :  max(cpu_time)    wall_clock(cpu1)
  | Time for this iteration                    :        0.026 s           0.025 s
  | Charge density update                      :        0.006 s           0.005 s
  | Density mixing                             :        0.002 s           0.002 s
  | Hartree multipole update                   :        0.001 s           0.002 s
  | Hartree multipole summation                :        0.004 s           0.004 s
  | Integration                                :        0.010 s           0.010 s
  | Solution of K.-S. eqns.                    :        0.001 s           0.001 s
  | Total energy evaluation                    :        0.000 s           0.000 s
------------------------------------------------------------

------------------------------------------------------------
          Begin self-consistency iteration #   10

  Date     :  20220120, Time     :  153601.690
------------------------------------------------------------
  Evaluating new KS density.
  Integration grid: deviation in total charge (<rho> - N_e) =   1.385528E-08
  | <rho_up-rho_dn> = N_up-N_dn =     -0.0151; <|rho_up-rho_dn|> =      0.0815
  Pulay mixing of updated and previous charge densities.

  Evaluating partitioned Hartree potential by multipole expansion.
  | Analytical far-field extrapolation by fixed multipoles:
  | Hartree multipole sum: apparent total charge =  -0.211527E-05
  Summing up the Hartree potential.
  Time summed over all CPUs for potential: real work        0.033 s, elapsed        0.033 s
  | RMS charge density error from multipole expansion :   0.860780E-03

  Integrating Hamiltonian matrix: batch-based integration.
  Time summed over all CPUs for integration: real work        0.073 s, elapsed        0.078 s

  Updating Kohn-Sham eigenvalues, eigenvectors, occupation numbers, and Fermi level.
  Solving generalized eigenproblem
  Solving real symmetric generalised eigenvalue problem by standard ScaLAPACK.
  Using Cholesky factor for transformation
  Using 1-stage real ELPA solver
  Solving real symmetric generalised eigenvalue problem by standard ScaLAPACK.
  Using Cholesky factor for transformation
  Using 1-stage real ELPA solver
  Determining occupation numbers for Kohn-Sham eigenstates.
  | Chemical potential (Fermi level) in eV                 : -.10579038E+02
  | Error in electron count due to remaining E_F inaccuracy: 0.00000000E+00
  | Maximum occupation number of highest empty state:  0.00E+00

  Current spin moment of the entire structure :
  | N = N_up - N_down :    0.00
  | S                 :    0.00
  | J                 :    1.00

  Highest occupied state (VBM) at    -12.80932693 eV
  | Occupation number:      1.00000000
  | Spin channel:        1

  Lowest unoccupied state (CBM) at     0.60217909 eV
  | Occupation number:      0.00000000
  | Spin channel:        2

  Overall HOMO-LUMO gap:     13.41150602 eV.

  Total energy components:
  | Sum of eigenvalues            :          -0.94895528 Ha         -25.82238692 eV
  | XC energy correction          :          -0.65508312 Ha         -17.82571872 eV
  | XC potential correction       :           0.84179899 Ha          22.90651591 eV
  | Free-atom electrostatic energy:          -0.24019047 Ha          -6.53591530 eV
  | Hartree energy correction     :          -0.15016715 Ha          -4.08625596 eV
  | van der Waals energy corr.    :           0.00000000 Ha           0.00000000 eV
  | Entropy correction            :           0.00000000 Ha           0.00000000 eV
  | ---------------------------
  | Total energy                  :          -1.15259703 Ha         -31.36376100 eV
  | Total energy, T -> 0          :          -1.15259703 Ha         -31.36376100 eV  <-- do not rely on this value for anything but (periodic) metals
  | Electronic free energy        :          -1.15259703 Ha         -31.36376100 eV

  Derived energy quantities:
  | Kinetic energy                :           0.81554148 Ha          22.19201268 eV
  | Electrostatic energy          :          -1.31305538 Ha         -35.73005495 eV
  | Energy correction for multipole
  | error in Hartree potential    :           0.00018671 Ha           0.00508063 eV
  | Sum of eigenvalues per atom                           :         -12.91119346 eV
  | Total energy (T->0) per atom                          :         -15.68188050 eV  <-- do not rely on this value for anything but (periodic) metals
  | Electronic free energy per atom                       :         -15.68188050 eV

  Self-consistency convergence accuracy:
  | Change of charge/spin density : 0.1620E+00 0.3158E-01
  | Change of sum of eigenvalues  : -.1834E+01 eV
  | Change of total energy        : 0.4437E-02 eV

  End self-consistency iteration #    10       :  max(cpu_time)    wall_clock(cpu1)
  | Time for this iteration                    :        0.027 s           0.026 s
  | Charge density update                      :        0.007 s           0.006 s
  | Density mixing                             :        0.002 s           0.002 s
  | Hartree multipole update                   :        0.001 s           0.001 s
  | Hartree multipole summation                :        0.004 s           0.005 s
  | Integration                                :        0.010 s           0.009 s
  | Solution of K.-S. eqns.                    :        0.001 s           0.002 s
  | Total energy evaluation                    :        0.000 s           0.001 s
------------------------------------------------------------

------------------------------------------------------------
          Begin self-consistency iteration #   11

  Date     :  20220120, Time     :  153601.719
------------------------------------------------------------
  Evaluating new KS density.
  Integration grid: deviation in total charge (<rho> - N_e) =   1.374524E-08
  | <rho_up-rho_dn> = N_up-N_dn =      0.0081; <|rho_up-rho_dn|> =      0.1002
  Pulay mixing of updated and previous charge densities.

  Evaluating partitioned Hartree potential by multipole expansion.
  | Analytical far-field extrapolation by fixed multipoles:
  | Hartree multipole sum: apparent total charge =  -0.611828E-05
  Summing up the Hartree potential.
  Time summed over all CPUs for potential: real work        0.032 s, elapsed        0.033 s
  | RMS charge density error from multipole expansion :   0.454170E-02

  Integrating Hamiltonian matrix: batch-based integration.
  Time summed over all CPUs for integration: real work        0.071 s, elapsed        0.077 s

  Updating Kohn-Sham eigenvalues, eigenvectors, occupation numbers, and Fermi level.
  Solving generalized eigenproblem
  Solving real symmetric generalised eigenvalue problem by standard ScaLAPACK.
  Using Cholesky factor for transformation
  Using 1-stage real ELPA solver
  Solving real symmetric generalised eigenvalue problem by standard ScaLAPACK.
  Using Cholesky factor for transformation
  Using 1-stage real ELPA solver
  Determining occupation numbers for Kohn-Sham eigenstates.
  | Chemical potential (Fermi level) in eV                 : -.14747562E+02
  | Error in electron count due to remaining E_F inaccuracy: 0.00000000E+00
  | Maximum occupation number of highest empty state:  0.00E+00

  Current spin moment of the entire structure :
  | N = N_up - N_down :    0.00
  | S                 :    0.00
  | J                 :    1.00

  Highest occupied state (VBM) at    -16.90602783 eV
  | Occupation number:      1.00000000
  | Spin channel:        2

  Lowest unoccupied state (CBM) at    -0.85217166 eV
  | Occupation number:      0.00000000
  | Spin channel:        1

  Overall HOMO-LUMO gap:     16.05385618 eV.

  Total energy components:
  | Sum of eigenvalues            :          -1.25852318 Ha         -34.24615813 eV
  | XC energy correction          :          -0.63259140 Ha         -17.21368779 eV
  | XC potential correction       :           0.81298010 Ha          22.12231403 eV
  | Free-atom electrostatic energy:          -0.24019047 Ha          -6.53591530 eV
  | Hartree energy correction     :           0.11503876 Ha           3.13036395 eV
  | van der Waals energy corr.    :           0.00000000 Ha           0.00000000 eV
  | Entropy correction            :           0.00000000 Ha           0.00000000 eV
  | ---------------------------
  | Total energy                  :          -1.20328619 Ha         -32.74308324 eV
  | Total energy, T -> 0          :          -1.20328619 Ha         -32.74308324 eV  <-- do not rely on this value for anything but (periodic) metals
  | Electronic free energy        :          -1.20328619 Ha         -32.74308324 eV

  Derived energy quantities:
  | Kinetic energy                :          -0.48233116 Ha         -13.12489852 eV
  | Electrostatic energy          :          -0.08836364 Ha          -2.40449694 eV
  | Energy correction for multipole
  | error in Hartree potential    :           0.00105045 Ha           0.02858407 eV
  | Sum of eigenvalues per atom                           :         -17.12307907 eV
  | Total energy (T->0) per atom                          :         -16.37154162 eV  <-- do not rely on this value for anything but (periodic) metals
  | Electronic free energy per atom                       :         -16.37154162 eV

[...]
  | Change of sum of eigenvalues  : 0.2518E-03 eV
  | Change of total energy        : -.1282E-07 eV

  End self-consistency iteration #    22       :  max(cpu_time)    wall_clock(cpu1)
  | Time for this iteration                    :        0.026 s           0.026 s
  | Charge density update                      :        0.006 s           0.006 s
  | Density mixing                             :        0.002 s           0.002 s
  | Hartree multipole update                   :        0.001 s           0.001 s
  | Hartree multipole summation                :        0.004 s           0.005 s
  | Integration                                :        0.010 s           0.010 s
  | Solution of K.-S. eqns.                    :        0.001 s           0.001 s
  | Total energy evaluation                    :        0.000 s           0.001 s
------------------------------------------------------------

------------------------------------------------------------
          Begin self-consistency iteration #   23

  Date     :  20220120, Time     :  153602.080
------------------------------------------------------------
  Evaluating new KS density.
  Integration grid: deviation in total charge (<rho> - N_e) =   1.555200E-12
  | <rho_up-rho_dn> = N_up-N_dn =     -0.0000; <|rho_up-rho_dn|> =      0.0000
  Pulay mixing of updated and previous charge densities.

  Evaluating partitioned Hartree potential by multipole expansion.
  | Analytical far-field extrapolation by fixed multipoles:
  | Hartree multipole sum: apparent total charge =   0.900543E-06
  Summing up the Hartree potential.
  Time summed over all CPUs for potential: real work        0.033 s, elapsed        0.033 s
  | RMS charge density error from multipole expansion :   0.151741E-02

  Integrating Hamiltonian matrix: batch-based integration.
  Time summed over all CPUs for integration: real work        0.072 s, elapsed        0.078 s

  Updating Kohn-Sham eigenvalues, eigenvectors, occupation numbers, and Fermi level.
  Solving generalized eigenproblem
  Solving real symmetric generalised eigenvalue problem by standard ScaLAPACK.
  Using Cholesky factor for transformation
  Using 1-stage real ELPA solver
  Solving real symmetric generalised eigenvalue problem by standard ScaLAPACK.
  Using Cholesky factor for transformation
  Using 1-stage real ELPA solver
  Determining occupation numbers for Kohn-Sham eigenstates.
  | Chemical potential (Fermi level) in eV                 : -.93375343E+01
  | Error in electron count due to remaining E_F inaccuracy: 0.00000000E+00
  | Maximum occupation number of highest empty state:  0.00E+00

  Current spin moment of the entire structure :
  | N = N_up - N_down :    0.00
  | S                 :    0.00
  | J                 :    1.00

  Highest occupied state (VBM) at    -10.96519095 eV
  | Occupation number:      1.00000000
  | Spin channel:        2

  Lowest unoccupied state (CBM) at     0.92365158 eV
  | Occupation number:      0.00000000
  | Spin channel:        1

  Overall HOMO-LUMO gap:     11.88884253 eV.

  Total energy components:
  | Sum of eigenvalues            :          -0.80592678 Ha         -21.93038351 eV
  | XC energy correction          :          -0.72931327 Ha         -19.84562388 eV
  | XC potential correction       :           0.93615844 Ha          25.47416739 eV
  | Free-atom electrostatic energy:          -0.24019047 Ha          -6.53591530 eV
  | Hartree energy correction     :          -0.31547112 Ha          -8.58440608 eV
  | van der Waals energy corr.    :           0.00000000 Ha           0.00000000 eV
  | Entropy correction            :           0.00000000 Ha           0.00000000 eV
  | ---------------------------
  | Total energy                  :          -1.15474321 Ha         -31.42216138 eV
  | Total energy, T -> 0          :          -1.15474321 Ha         -31.42216138 eV  <-- do not rely on this value for anything but (periodic) metals
  | Electronic free energy        :          -1.15474321 Ha         -31.42216138 eV

  Derived energy quantities:
  | Kinetic energy                :           1.26271037 Ha          34.36009749 eV
  | Electrostatic energy          :          -1.68814031 Ha         -45.93663499 eV
  | Energy correction for multipole
  | error in Hartree potential    :          -0.00006323 Ha          -0.00172058 eV
  | Sum of eigenvalues per atom                           :         -10.96519176 eV
  | Total energy (T->0) per atom                          :         -15.71108069 eV  <-- do not rely on this value for anything but (periodic) metals
  | Electronic free energy per atom                       :         -15.71108069 eV

  Self-consistency convergence accuracy:
  | Change of charge/spin density : 0.8967E-05 0.3142E-05
  | Change of sum of eigenvalues  : -.1749E-03 eV
  | Change of total energy        : -.1321E-08 eV

  End self-consistency iteration #    23       :  max(cpu_time)    wall_clock(cpu1)
  | Time for this iteration                    :        0.026 s           0.026 s
  | Charge density update                      :        0.006 s           0.006 s
  | Density mixing                             :        0.002 s           0.002 s
  | Hartree multipole update                   :        0.001 s           0.001 s
  | Hartree multipole summation                :        0.004 s           0.005 s
  | Integration                                :        0.010 s           0.010 s
  | Solution of K.-S. eqns.                    :        0.001 s           0.001 s
  | Total energy evaluation                    :        0.000 s           0.001 s
------------------------------------------------------------

------------------------------------------------------------
          Begin self-consistency iteration #   24

  Date     :  20220120, Time     :  153602.110
------------------------------------------------------------
  Evaluating new KS density.
  Integration grid: deviation in total charge (<rho> - N_e) =   3.730349E-14
  | <rho_up-rho_dn> = N_up-N_dn =     -0.0000; <|rho_up-rho_dn|> =      0.0000
  Pulay mixing of updated and previous charge densities.

  Evaluating partitioned Hartree potential by multipole expansion.
  | Analytical far-field extrapolation by fixed multipoles:
  | Hartree multipole sum: apparent total charge =   0.900534E-06
  Summing up the Hartree potential.
  Time summed over all CPUs for potential: real work        0.033 s, elapsed        0.033 s
  | RMS charge density error from multipole expansion :   0.151741E-02

  Integrating Hamiltonian matrix: batch-based integration.
  Time summed over all CPUs for integration: real work        0.072 s, elapsed        0.078 s

  Updating Kohn-Sham eigenvalues, eigenvectors, occupation numbers, and Fermi level.
  Solving generalized eigenproblem
  Solving real symmetric generalised eigenvalue problem by standard ScaLAPACK.
  Using Cholesky factor for transformation
  Using 1-stage real ELPA solver
  Solving real symmetric generalised eigenvalue problem by standard ScaLAPACK.
  Using Cholesky factor for transformation
  Using 1-stage real ELPA solver
  Determining occupation numbers for Kohn-Sham eigenstates.
  | Chemical potential (Fermi level) in eV                 : -.93385065E+01
  | Error in electron count due to remaining E_F inaccuracy: 0.00000000E+00
  | Maximum occupation number of highest empty state:  0.00E+00

  Current spin moment of the entire structure :
  | N = N_up - N_down :    0.00
  | S                 :    0.00
  | J                 :    1.00

  Highest occupied state (VBM) at    -10.96519372 eV
  | Occupation number:      1.00000000
  | Spin channel:        2

  Lowest unoccupied state (CBM) at     0.92365381 eV
  | Occupation number:      0.00000000
  | Spin channel:        1

  Overall HOMO-LUMO gap:     11.88884753 eV.

  Total energy components:
  | Sum of eigenvalues            :          -0.80592693 Ha         -21.93038766 eV
  | XC energy correction          :          -0.72931321 Ha         -19.84562225 eV
  | XC potential correction       :           0.93615837 Ha          25.47416530 eV
  | Free-atom electrostatic energy:          -0.24019047 Ha          -6.53591530 eV
  | Hartree energy correction     :          -0.31547096 Ha          -8.58440147 eV
  | van der Waals energy corr.    :           0.00000000 Ha           0.00000000 eV
  | Entropy correction            :           0.00000000 Ha           0.00000000 eV
  | ---------------------------
  | Total energy                  :          -1.15474321 Ha         -31.42216138 eV
  | Total energy, T -> 0          :          -1.15474321 Ha         -31.42216138 eV  <-- do not rely on this value for anything but (periodic) metals
  | Electronic free energy        :          -1.15474321 Ha         -31.42216138 eV

  Derived energy quantities:
  | Kinetic energy                :           1.26271017 Ha          34.36009192 eV
  | Electrostatic energy          :          -1.68814016 Ha         -45.93663105 eV
  | Energy correction for multipole
  | error in Hartree potential    :          -0.00006323 Ha          -0.00172058 eV
  | Sum of eigenvalues per atom                           :         -10.96519383 eV
  | Total energy (T->0) per atom                          :         -15.71108069 eV  <-- do not rely on this value for anything but (periodic) metals
  | Electronic free energy per atom                       :         -15.71108069 eV

  Self-consistency convergence accuracy:
  | Change of charge/spin density : 0.1567E-06 0.2068E-06
  | Change of sum of eigenvalues  : -.4147E-05 eV
  | Change of total energy        : -.1476E-09 eV

  Writing Kohn-Sham eigenvalues.

  Spin-up eigenvalues:

  State    Occupation    Eigenvalue [Ha]    Eigenvalue [eV]
      1       1.00000          -0.402963          -10.96519
      2       0.00000           0.033944            0.92365
      3       0.00000           0.045893            1.24882
      4       0.00000           0.185771            5.05508
      5       0.00000           0.327632            8.91532
      6       0.00000           0.327632            8.91532
      7       0.00000           0.359264            9.77607
      8       0.00000           0.610292           16.60690
      9       0.00000           0.789039           21.47085
     10       0.00000           0.789039           21.47085
     11       0.00000           0.792519           21.56555

  Spin-down eigenvalues:

  State    Occupation    Eigenvalue [Ha]    Eigenvalue [eV]
      1       1.00000          -0.402963          -10.96519
      2       0.00000           0.033944            0.92366
      3       0.00000           0.045893            1.24882
      4       0.00000           0.185771            5.05509
      5       0.00000           0.327632            8.91532
      6       0.00000           0.327632            8.91532
      7       0.00000           0.359264            9.77607
      8       0.00000           0.610292           16.60690
      9       0.00000           0.789039           21.47085
     10       0.00000           0.789039           21.47085
     11       0.00000           0.792519           21.56555

  Current spin moment of the entire structure :
  | N = N_up - N_down :    0.00
  | S                 :    0.00
  | J                 :    1.00

  Highest occupied state (VBM) at    -10.96519372 eV
  | Occupation number:      1.00000000
  | Spin channel:        2

  Lowest unoccupied state (CBM) at     0.92365381 eV
  | Occupation number:      0.00000000
  | Spin channel:        1

  Overall HOMO-LUMO gap:     11.88884753 eV.

  Self-consistency cycle converged.

  End self-consistency iteration #    24       :  max(cpu_time)    wall_clock(cpu1)
  | Time for this iteration                    :        0.026 s           0.027 s
  | Charge density update                      :        0.006 s           0.006 s
  | Density mixing                             :        0.002 s           0.002 s
  | Hartree multipole update                   :        0.001 s           0.001 s
  | Hartree multipole summation                :        0.004 s           0.005 s
  | Integration                                :        0.010 s           0.010 s
  | Solution of K.-S. eqns.                    :        0.001 s           0.001 s
  | Total energy evaluation                    :        0.000 s           0.001 s
------------------------------------------------------------
  Obtaining max. number of non-zero basis functions in each batch .
  Evaluating KS electron density on previously omitted grid points.
  Evaluating non-empirical van der Waals correction (Tkatchenko/Scheffler 2009).
  Performing Hirshfeld analysis of fragment charges and moments.
  ----------------------------------------------------------------------
  | Atom     1: H
  |   Hirshfeld charge        :     -0.00000045
  |   Free atom volume        :     10.31539447
  |   Hirshfeld volume        :      4.75287098
  |   Hirshfeld spin moment   :      0.00000007
  |   Hirshfeld dipole vector :      0.00000000      -0.00000000      -0.07433501
  |   Hirshfeld dipole moment :      0.07433501
  |   Hirshfeld second moments:      0.13721981       0.00000000      -0.00000000
  |                                  0.00000000       0.13721981       0.00000000
  |                                 -0.00000000       0.00000000       0.13486748
  ----------------------------------------------------------------------
  | Atom     2: H
  |   Hirshfeld charge        :     -0.00000045
  |   Free atom volume        :     10.31539447
  |   Hirshfeld volume        :      4.75287098
  |   Hirshfeld spin moment   :      0.00000007
  |   Hirshfeld dipole vector :     -0.00000000       0.00000000       0.07433501
  |   Hirshfeld dipole moment :      0.07433501
  |   Hirshfeld second moments:      0.13721981       0.00000000      -0.00000000
  |                                  0.00000000       0.13721981       0.00000000
  |                                 -0.00000000       0.00000000       0.13486748
  ----------------------------------------------------------------------


  Total energy components:
  | Sum of eigenvalues            :          -0.80592693 Ha         -21.93038766 eV
  | XC energy correction          :          -0.72931321 Ha         -19.84562225 eV
  | XC potential correction       :           0.93615837 Ha          25.47416530 eV
  | Free-atom electrostatic energy:          -0.24019047 Ha          -6.53591530 eV
  | Hartree energy correction     :          -0.31547096 Ha          -8.58440147 eV
  | van der Waals energy corr.    :          -0.00000020 Ha          -0.00000539 eV
  | Entropy correction            :           0.00000000 Ha           0.00000000 eV
  | ---------------------------
  | Total energy                  :          -1.15474340 Ha         -31.42216677 eV
  | Total energy, T -> 0          :          -1.15474340 Ha         -31.42216677 eV  <-- do not rely on this value for anything but (periodic) metals
  | Electronic free energy        :          -1.15474340 Ha         -31.42216677 eV

  Derived energy quantities:
  | Kinetic energy                :           1.26271017 Ha          34.36009192 eV
  | Electrostatic energy          :          -1.68814016 Ha         -45.93663105 eV
  | Energy correction for multipole
  | error in Hartree potential    :          -0.00006323 Ha          -0.00172058 eV
  | Sum of eigenvalues per atom                           :         -10.96519383 eV
  | Total energy (T->0) per atom                          :         -15.71108338 eV  <-- do not rely on this value for anything but (periodic) metals
  | Electronic free energy per atom                       :         -15.71108338 eV
  Timings for VdW correction (Tkatchenko-Scheffler 2009 or later):
  | CPU time:        0.003 s, Wall clock time:        0.002 s.

  Energy and forces in a compact form:
  | Total energy uncorrected      :         -0.314221667679361E+02 eV
  | Total energy corrected        :         -0.314221667679361E+02 eV  <-- do not rely on this value for anything but (periodic) metals
  | Electronic free energy        :         -0.314221667679361E+02 eV

  ------------------------------------ 
  Start decomposition of the XC Energy 
  ------------------------------------ 
  Hartree-Fock part   :          0.000000000 Ha              0.000000000 eV
  ------------------------------------ 
  X Energy            :         -0.685913348 Ha            -18.664651847 eV
  C Energy GGA        :         -0.043399865 Ha             -1.180970406 eV
  Total XC Energy     :         -0.729313213 Ha            -19.845622253 eV
  LDA X and C from self-consistent density 
  X Energy LDA        :         -0.600323102 Ha            -16.335622750 eV
  C Energy LDA        :         -0.096744264 Ha             -2.632545354 eV
  ------------------------------------ 
  End decomposition of the XC Energy 
  ------------------------------------ 

------------------------------------------------------------------------------
  Final output of selected total energy values:

  The following output summarizes some interesting total energy values
  at the end of a run (AFTER all relaxation, molecular dynamics, etc.).

  | Total energy of the DFT / Hartree-Fock s.c.f. calculation      :            -31.422166768 eV
  | Final zero-broadening corrected energy (caution - metals only) :            -31.422166768 eV
  | For reference only, the value of 1 Hartree used in FHI-aims is :             27.211384500 eV

  Before relying on these values, please be sure to understand exactly which
  total energy value is referred to by a given number. Different objects may
  all carry the same name 'total energy'. Definitions:

  Total energy of the DFT / Hartree-Fock s.c.f. calculation:
  | Note that this energy does not include ANY quantities calculated after the
  | s.c.f. cycle, in particular not ANY RPA, MP2, etc. many-body perturbation terms.

  Final zero-broadening corrected energy:
  | For metallic systems only, a broadening of the occupation numbers at the Fermi
  | level can be extrapolated back to zero broadening by an electron-gas inspired
  | formula. For all systems that are not real metals, this value can be
  | meaningless and should be avoided.

------------------------------------------------------------------------------

------------------------------------------------------------
          Leaving FHI-aims.
          Date     :  20220120, Time     :  153602.146

          Computational steps:
          | Number of self-consistency cycles          :           24

          Detailed time accounting                     :  max(cpu_time)    wall_clock(cpu1)
          | Total time                                 :        0.798 s           0.923 s
          | Preparation time                           :        0.078 s           0.078 s
          | Grid partitioning                          :        0.007 s           0.007 s
          | Preloading free-atom quantities on grid    :        0.004 s           0.003 s
          | Free-atom superposition energy             :        0.002 s           0.003 s
          | Total time for integrations                :        0.245 s           0.245 s
          | Total time for solution of K.-S. equations :        0.038 s           0.043 s
          | Total time for density update              :        0.157 s           0.142 s
          | Total time for mixing                      :        0.038 s           0.038 s
          | Total time for Hartree multipole update    :        0.031 s           0.033 s
          | Total time for Hartree multipole sum       :        0.106 s           0.106 s
          | Total time for total energy evaluation     :        0.004 s           0.015 s
          | Total time for scaled ZORA corrections     :        0.000 s           0.000 s
          | Total time for vdW correction              :        0.003 s           0.002 s

          Have a nice day.
------------------------------------------------------------
