  MPI-parallelism will be employed.
------------------------------------------------------------
          Invoking FHI-aims ...
          Version 052014
          Git rev. (modified): 096c982 Merge branch master of fhiaims:/pub/localo[...]
          Compiled on 2016/12/16 at 15:22:01 on host login02.hpc.iitd.ac.in.

          When using FHI-aims, please cite the following reference:

          Volker Blum, Ralf Gehrke, Felix Hanke, Paula Havu,
          Ville Havu, Xinguo Ren, Karsten Reuter, and Matthias Scheffler,
          'Ab Initio Molecular Simulations with Numeric Atom-Centered Orbitals: FHI-aims',
          Computer Physics Communications 180, 2175-2196 (2009)

          For any questions about FHI-aims, please visit the aimsclub website
          with its forums and wiki. Contributions to both the forums and the
          wiki are warmly encouraged - they are for you, and everyone is welcome there.

------------------------------------------------------------

  Date     :  20220120, Time     :  153004.243
  Time zero on CPU 1             :   0.122700000000000E-01  s.
  Internal wall clock time zero  :           411924604.243  s.

  Using        8 parallel tasks.
  Task        0 on host csky019 reporting.
  Task        1 on host csky019 reporting.
  Task        2 on host csky019 reporting.
  Task        3 on host csky019 reporting.
  Task        4 on host csky019 reporting.
  Task        5 on host csky019 reporting.
  Task        6 on host csky019 reporting.
  Task        7 on host csky019 reporting.

  Performing system and environment tests:
  | Environment variable OMP_NUM_THREADS correctly set to 1.
  | Stacksize not measured: no C compiler
  | Checking for scalapack...
  | Testing pdtran()...
  | All pdtran() tests passed.

  Obtaining array dimensions for all initial allocations:
  
  -----------------------------------------------------------------------
  Parsing control.in (first pass over file, find array dimensions only).
  The contents of control.in will be repeated verbatim below
  unless switched off by setting 'verbatim_writeout .false.' .
  in the first line of control.in .
  -----------------------------------------------------------------------
  
    xc               pbe
    spin             collinear
    default_initial_moment hund
    relativistic     atomic_zora scalar 1e-9
    occupation_type  gaussian 0.001
    charge        0
    vdw_correction_hirshfeld
    KS_method        scalapack_fast
    mixer            pulay
    charge_mix_param  0.4
    spin_mix_param    0.6
    sc_accuracy_rho  1E-4
    sc_accuracy_eev  1E-5
    sc_accuracy_etot 1E-5
    sc_iter_limit    100
    empty_states     10
  ################################################################################
  #
  #  FHI-aims code project
  # Volker Blum, Fritz Haber Institute Berlin, 2009
  #
  #  Suggested "tight" defaults for H atom (to be pasted into control.in file)
  #
  ################################################################################
    species        H
  #     global species definitions
      nucleus             1
      mass                1.00794
  #
      l_hartree           6
  #
      cut_pot             4.0  2.0  1.0
      basis_dep_cutoff    1e-4
  #
      radial_base         24 7.0
      radial_multiplier   2
      angular_grids       specified
        division   0.1930   50
        division   0.3175  110
        division   0.4293  194
        division   0.5066  302
        division   0.5626  434
  #      division   0.5922  590
  #      division   0.6227  974
  #      division   0.6868 1202
  #      outer_grid  770
        outer_grid  434
  ################################################################################
  #
  #  Definition of "minimal" basis
  #
  ################################################################################
  #     valence basis states
      valence      1  s   1.
  #     ion occupancy
      ion_occ      1  s   0.5
  ################################################################################
  #
  #  Suggested additional basis functions. For production calculations,
  #  uncomment them one after another (the most important basis functions are
  #  listed first).
  #
  #  Basis constructed for dimers: 0.5 A, 0.7 A, 1.0 A, 1.5 A, 2.5 A
  #
  ################################################################################
  #  "First tier" - improvements: -1014.90 meV to -62.69 meV
       hydro 2 s 2.1
       hydro 2 p 3.5
  #  "Second tier" - improvements: -12.89 meV to -1.83 meV
       hydro 1 s 0.85
       hydro 2 p 3.7
       hydro 2 s 1.2
       hydro 3 d 7
  #  "Third tier" - improvements: -0.25 meV to -0.12 meV
  #     hydro 4 f 11.2
  #     hydro 3 p 4.8
  #     hydro 4 d 9
  #     hydro 3 s 3.2
  ################################################################################
  #
  # For methods that use the localized form of the "resolution of identity" for
  # the two-electron Coulomb operator (RI_method LVL), particularly Hartree-Fock and
  # hybrid density functional calculations, the highest accuracy can be obtained by
  # uncommenting the line beginning with "for_aux"  below, thus adding an extra g radial
  # function to the construction of the product basis set for the expansion.
  # See Ref. New J. Phys. 17, 093020 (2015) for more information, particularly Figs. 1 and 6.
  #
  ################################################################################
  #
  # for_aux hydro 5 g 6.0
  
  -----------------------------------------------------------------------
  Completed first pass over input file control.in .
  -----------------------------------------------------------------------
  
  
  -----------------------------------------------------------------------
  Parsing geometry.in (first pass over file, find array dimensions only).
  The contents of geometry.in will be repeated verbatim below
  unless switched off by setting 'verbatim_writeout .false.' .
  in the first line of geometry.in .
  -----------------------------------------------------------------------
  
  atom 0 0 0 H
  atom 0 0 0.29 H
  
  -----------------------------------------------------------------------
  Completed first pass over input file geometry.in .
  -----------------------------------------------------------------------
  

  Basic array size parameters:
  | Number of species                 :        1
  | Number of atoms                   :        2
  | Max. basis fn. angular momentum   :        2
  | Max. atomic/ionic basis occupied n:        1
  | Max. number of basis fn. types    :        2
  | Max. radial fns per species/type  :        6
  | Max. logarithmic grid size        :     1131
  | Max. radial integration grid size :       49
  | Max. angular integration grid size:      434
  | Max. angular grid division number :        8
  | Radial grid for Hartree potential :     1131
  | Number of spin channels           :        2

------------------------------------------------------------
          Reading file control.in.
------------------------------------------------------------
  XC: Using PBE gradient-corrected functionals.
  Spin treatment: Spin density functional theory - collinear spins.
  Initial spin moment per atom set according to Hund's rules.
  Scalar relativistic treatment of kinetic energy: on-site free-atom approximation to ZORA.
  Occupation type: Gaussian broadening, width =   0.100000E-02 eV.
  Charge =   0.000000E+00: Neutral system requested explicitly.
  Using non-empirical van der Waals correction (Hirshfeld partitioning):
  Kohn-Sham eigenvalues and eigenfunctions calculated by the ELPA eigensolver library.
  Using pulay charge density mixing.
  Charge density mixing - mixing parameter:     0.4000
  Spin density mixing - mixing parameter:     0.6000
  Convergence accuracy of self-consistent charge density: 0.1000E-03
  Convergence accuracy of sum of eigenvalues: 0.1000E-04
  Convergence accuracy of total energy: 0.1000E-04
  Maximum number of s.-c. iterations  :   100
  Number of empty states per atom:       10
 
  Reading configuration options for species H                   .
  | Found nuclear charge :   1.0000
  | Found atomic mass :    1.00794000000000      amu
  | Found l_max for Hartree potential  :   6
  | Found cutoff potl. onset [A], width [A], scale factor :    4.00000    2.00000    1.00000
  | Threshold for basis-dependent cutoff potential is   0.100000E-03
  | Found data for basic radial integration grid :    24 points, outermost radius =    7.000 A
  | Found multiplier for basic radial grid :   2
  | Found angular grid specification: user-specified.
  | Specified grid contains     6 separate shells.
  | Check grid settings after all constraints further below.
  | Found free-atom valence shell :  1 s   1.000
  | No ionic wave fns used. Skipping ion_occ.
  | Found hydrogenic basis function :  2 s   2.100
  | Found hydrogenic basis function :  2 p   3.500
  | Found hydrogenic basis function :  1 s   0.850
  | Found hydrogenic basis function :  2 p   3.700
  | Found hydrogenic basis function :  2 s   1.200
  | Found hydrogenic basis function :  3 d   7.000
  Species H                   : Missing cutoff potential type.
  Defaulting to exp(1/x)/(1-x)^2 type cutoff potential.
  Species H : No 'logarithmic' tag. Using default grid for free atom:
  | Default logarithmic grid data [bohr] : 0.1000E-03 0.1000E+03 0.1012E+01
  Species H : On-site basis accuracy parameter (for Gram-Schmidt orthonormalisation) not specified.
  Using default value basis_acc =  0.1000000E-03.
  Species H                   : Using default innermost maximum threshold i_radial=  2 for radial functions.
  Species H                   : Default cutoff onset for free atom density etc. : 0.40000000E+01 AA.
  Species H                   : Basic radial grid will be enhanced according to radial_multiplier =   2, to contain    49 grid points.
 
  Finished reading input file 'control.in'. Consistency checks are next.
 
  Target number of points in a grid batch is not set. Defaulting to  100
  Method for grid partitioning is not set. Defaulting to parallel hash+maxmin partitioning.
  Batch size limit is not set. Defaulting to    200
  By default, will store active basis functions for each batch.
  If in need of memory, prune_basis_once .false. can be used to disable this option.
  communication_type for Hartree potential was not specified.
  Defaulting to calc_hartree .
  Pulay mixer: Number of relevant iterations not set.
  Defaulting to    8 iterations.
  Pulay mixer: Number of initial linear mixing iterations not set.
  Defaulting to    0 iterations.
  Work space size for distributed Hartree potential not set.
  Defaulting to   0.200000E+03 MB.
  Algorithm-dependent basis array size parameters:
  | n_max_pulay                         :        8
  Calculation of forces was not defined in control.in. No forces will be calculated.
  Geometry relaxation not requested: no relaxation will be performed.
  No accuracy limit for integral partition fn. given. Defaulting to 0.1000E-14.
  No threshold value for u(r) in integrations given. Defaulting to 0.1000E-05.
  No accuracy for occupation numbers given. Defaulting to 0.1000E-07.
  No threshold value for occupation numbers given. Defaulting to 0.0000E+00.
  No accuracy for fermi level given. Defaulting to 0.1000E-19.
  Maximum # of iterations to find E_F not set. Defaulting to  200.
  Will not use alltoall communication since running on < 1024 CPUs.
  Threshold for basis singularities not set.
  Default threshold for basis singularities: 0.1000E-04
  partition_type (choice of integration weights) for integrals was not specified.
  | Using a version of the partition function of Stratmann and coworkers ('stratmann_smoother').
  | At each grid point, the set of atoms used to build the partition table is smoothly restricted to
  | only those atoms whose free-atom density would be non-zero at that grid point.
  Partitioning for Hartree potential was not defined. Using partition_type for integrals.
  | Adjusted default value of keyword multip_moments_threshold to:       0.10000000E-11
  | This value may affect high angular momentum components of the Hartree potential in periodic systems.
  No q(lm)/r^(l+1) cutoff set for long-range Hartree potential.
  | Using default value of  0.100000E-09 .
  | Verify using the multipole_threshold keyword.
  Defaulting to new monopole extrapolation.
  Density update method: automatic selection selected.
------------------------------------------------------------


------------------------------------------------------------
          Reading geometry description geometry.in.
------------------------------------------------------------
  Input structure read successfully.
  The structure contains        2 atoms,  and a total of          2.000 electrons.

  Input geometry:
  | No unit cell requested.
  | Atomic structure:
  |       Atom                x [A]            y [A]            z [A]
  |    1: Species H              0.000000         0.000000         0.000000
  |    2: Species H              0.000000         0.000000         0.290000
  |

  | The smallest distance between any two atoms is         0.29000000 AA.
  |
  | The first atom of this pair is atom number                      1 .
  | The second atom of this pair is atom number                     2 .

  Initial moments and charges:
  |  Atom   Moment         Charge        Species
  |     1  (Hund's rule)   0.000000E+00   H
  |     2  (Hund's rule)   0.000000E+00   H

  Structure-dependent array size parameters: 
  | Number of distinct atom types in initial rho :        1
  | Maximum number of distinct radial functions  :        7
  | Maximum number of basis functions            :       30
  | Number of Kohn-Sham states (occupied + empty):       11
------------------------------------------------------------

------------------------------------------------------------
          Preparing all fixed parts of the calculation.
------------------------------------------------------------
  Determining machine precision:
    2.225073858507201E-308
  Setting up grids for atomic and cluster calculations.

  Creating wave function, potential, and density for free atoms.

  Species: H

  List of occupied orbitals and eigenvalues:
    n    l              occ      energy [Ha]    energy [eV]
    1    0           1.0000        -0.238386        -6.4868

  Spin-polarized or charged system:
  Charge density initialized according to selected moments and charges.

  Creating spin-polarized density from free atoms.

  Species: H
  Charge:   0.000000
  applying Hund's rules ...

  List of occupied orbitals and eigenvalues:
    n    l      energy [Ha]    energy [eV]    occupation
  Spin-up
    1    0        -0.278991        -7.5917     1.00000000
  Spin-down
    1    0         0.090850         2.4721     0.00000000

  Creating fixed part of basis set: Ionic, confined, hydrogenic.
 
  H                    hydrogenic:
 
  List of hydrogenic basis orbitals: 
    n    l      effective z      eigenvalue [eV]  inner max. [A]     outer max. [A]     outer radius [A]   
    2    0         2.100000       -14.9965           0.193243           1.317208           5.373006
    2    1         3.500000       -41.6672           0.602369           0.602369           4.056063
    1    0         0.850000        -9.8292           0.624871           0.624871           5.373006
    2    1         3.700000       -46.5653           0.573622           0.573622           3.910002
    2    0         1.200000        -4.5995           0.334980           2.228188           5.505995
    3    2         7.000000       -74.0753           0.680699           0.680699           3.769201
 

  Adding cutoff potential to free-atom effective potential.
  Creating atomic-like basis functions for current effective potential.

  Species H                   :

  List of atomic basis orbitals and eigenvalues:
    n    l      energy [Ha]    energy [eV]    outer radius [A]
    1    0        -0.238386        -6.4868       5.373006

  Assembling full basis from fixed parts.
  | Species H :   atomic orbital   1 s accepted.
  | Species H :    hydro orbital   2 s accepted.
  | Species H :    hydro orbital   1 s accepted.
  | Species H :    hydro orbital   2 s accepted.
  | Species H :    hydro orbital   2 p accepted.
  | Species H :    hydro orbital   2 p accepted.
  | Species H :    hydro orbital   3 d accepted.
 
  Basis size parameters after reduction:
  | Total number of radial functions:        7
  | Total number of basis functions :       30
 
  Testing on-site integration grid accuracy.
  |  Species  Function  <phi|h_atom|phi> (log., in eV)  <phi|h_atom|phi> (rad., in eV)
           1        1                 -6.4870767962                 -6.4871688290
           1        2                 13.5032046589                 13.5028982997
           1        3                 32.8195184817                 32.8119941656
           1        4                 33.8513856511                 33.7670005767 ***
           1        5                 28.8544614965                 28.8544615203
           1        6                 59.6326952547                 59.6327656460
           1        7                 60.2719308513                 60.2719305949
 * Note: Onsite integrals marked "***" above are less accurate than
 * onsite_accuracy_threshold =    0.03000 eV. Usually, this is harmless.
 * When in doubt, tighten the "radial" and/or "radial_multiplier" flags to check.

  Preparing densities etc. for the partition functions (integrals / Hartree potential).

  Preparations completed.
  max(cpu_time)          :      0.077 s.
  Wall clock time (cpu1) :      0.078 s.
------------------------------------------------------------

------------------------------------------------------------
          Begin self-consistency loop: Initialization.

          Date     :  20220120, Time     :  153004.403
------------------------------------------------------------

  Initializing index lists of integration centers etc. from given atomic structure:
  | Number of centers in hartree potential         :         2
  | Number of centers in hartree multipole         :         2
  | Number of centers in electron density summation:         2
  | Number of centers in basis integrals           :         2
  | Number of centers in integrals                 :         2
  Using modified Scalapack Eigenvalue solver (ELPA)
  * Using 8 tasks for Scalapack Eigenvalue solver.
  Detailed listing of tasks and assigned k-points:
  (for non-periodic systems, the "k-point" denotes an internal label only)
   Task     0 k-point     1 on csky019
   Task     1 k-point     1 on csky019
   Task     2 k-point     1 on csky019
   Task     3 k-point     1 on csky019
   Task     4 k-point     1 on csky019
   Task     5 k-point     1 on csky019
   Task     6 k-point     1 on csky019
   Task     7 k-point     1 on csky019
  Tasks:     8 split into      4 X      2 BLACS grid
  Calculating blocksize based on n_basis =           30 max_nprow =            4 max_npcol =            2
  Scalapack blocksize set to:            4
  Required Scalapack workspace - INTEGER:            1 REAL:             1
  Partitioning the integration grid into batches with parallel hashing+maxmin method.
  | Number of batches:      442
  | Maximal batch size:     198
  | Minimal batch size:      49
  | Average batch size:      65.385
  | Standard deviation of batch sizes:      18.696

  Integration load balanced across     8 MPI tasks.
  Work distribution over tasks is as follows:
  Task     0 has       3585 integration points.
  Task     1 has       3624 integration points.
  Task     2 has       3575 integration points.
  Task     3 has       3674 integration points.
  Task     4 has       3650 integration points.
  Task     5 has       3595 integration points.
  Task     6 has       3615 integration points.
  Task     7 has       3582 integration points.
  Initializing partition tables, free-atom densities, potentials, etc. across the integration grid (initialize_grid_storage).
  | initialize_grid_storage: Actual outermost partition radius vs. multipole_radius_free
  | (-- VB: in principle, multipole_radius_free should be larger, hence this output)
  | Species        1: outer_partition_radius =              6.000000000000000 AA, multipole_radius_free =              6.071692442739658 AA.
  | Original list of interatomic distances with           2 x          2 entries is created.
  | Net number of integration points:    28900
  | of which are non-zero points    :    25502
  Obtaining max. number of non-zero basis functions in each batch (get_n_compute_maxes).
  | Maximal number of non-zero basis functions:       30 in task     0
  | Maximal number of non-zero basis functions:       30 in task     1
  | Maximal number of non-zero basis functions:       30 in task     2
  | Maximal number of non-zero basis functions:       30 in task     3
  | Maximal number of non-zero basis functions:       30 in task     4
  | Maximal number of non-zero basis functions:       30 in task     5
  | Maximal number of non-zero basis functions:       30 in task     6
  | Maximal number of non-zero basis functions:       30 in task     7
  Selecting the method for density update.
  Loop over occupied states selected for charge density update.
  Integrating Hamiltonian matrix: batch-based integration.
  Time summed over all CPUs for integration: real work        0.080 s, elapsed        0.092 s
  Integrating overlap matrix.
  Time summed over all CPUs for integration: real work        0.019 s, elapsed        0.025 s
  Deallocating overlap matrix.

  Updating Kohn-Sham eigenvalues, eigenvectors, occupation numbers, and Fermi level.
  Solving generalized eigenproblem
  Solving real symmetric generalised eigenvalue problem by standard ScaLAPACK.
  Transforming overlap matrix with ScaLAPACK and checking for singularities.
  : Overlap matrix is nonsingular, using Cholesky decomposition
  | Lowest eigenvalue:  0.279079E-04
  Factoring overlap matrix with Cholesky decomposition
  Using Cholesky factor for transformation
  Using 1-stage real ELPA solver
  Solving real symmetric generalised eigenvalue problem by standard ScaLAPACK.
  Using Cholesky factor for transformation
  Using 1-stage real ELPA solver
  Determining occupation numbers for Kohn-Sham eigenstates.
  | Chemical potential (Fermi level) in eV                 : -.22263669E+00
  | Error in electron count due to remaining E_F inaccuracy: 0.00000000E+00
  | Maximum occupation number of highest empty state:  0.00E+00

  Writing Kohn-Sham eigenvalues.

  Spin-up eigenvalues:

  State    Occupation    Eigenvalue [Ha]    Eigenvalue [eV]
      1       1.00000          -0.917444          -24.96492
      2       1.00000          -0.013046           -0.35500
      3       0.00000           0.002737            0.07447
      4       0.00000           0.156183            4.24996
      5       0.00000           0.200229            5.44851
      6       0.00000           0.200229            5.44851
      7       0.00000           0.242450            6.59740
      8       0.00000           0.619453           16.85618
      9       0.00000           0.619453           16.85618
     10       0.00000           0.638661           17.37886
     11       0.00000           0.703041           19.13072

  Spin-down eigenvalues:

  State    Occupation    Eigenvalue [Ha]    Eigenvalue [eV]
      1       0.00000           0.099171            2.69857
      2       0.00000           0.110021            2.99383
      3       0.00000           0.523256           14.23851
      4       0.00000           0.529198           14.40021
      5       0.00000           1.082442           29.45474
      6       0.00000           1.215614           33.07853
      7       0.00000           1.215614           33.07853
      8       0.00000           1.262000           34.34076
      9       0.00000           1.262000           34.34076
     10       0.00000           1.475057           40.13833
     11       0.00000           1.830228           49.80303

  Current spin moment of the entire structure :
  | N = N_up - N_down :    2.00
  | S                 :    1.00
  | J                 :    3.00

  Highest occupied state (VBM) at     -0.35499837 eV
  | Occupation number:      1.00000000
  | Spin channel:        1

  Lowest unoccupied state (CBM) at     0.07447441 eV
  | Occupation number:      0.00000000
  | Spin channel:        1

  Overall HOMO-LUMO gap:      0.42947278 eV.
  Calculating total energy contributions from superposition of free atom densities.

  Total energy components:
  | Sum of eigenvalues            :          -0.93048994 Ha         -25.31991941 eV
  | XC energy correction          :          -0.73461762 Ha         -19.98996249 eV
  | XC potential correction       :           0.94857569 Ha          25.81205771 eV
  | Free-atom electrostatic energy:           0.68455756 Ha          18.62775908 eV
  | Hartree energy correction     :           0.00000000 Ha           0.00000000 eV
  | van der Waals energy corr.    :           0.00000000 Ha           0.00000000 eV
  | Entropy correction            :           0.00000000 Ha           0.00000000 eV
  | ---------------------------
  | Total energy                  :          -0.03197430 Ha          -0.87006510 eV
  | Total energy, T -> 0          :          -0.03197430 Ha          -0.87006510 eV  <-- do not rely on this value for anything but (periodic) metals
  | Electronic free energy        :          -0.03197430 Ha          -0.87006510 eV

  Derived energy quantities:
  | Kinetic energy                :           1.29983590 Ha          35.37033451 eV
  | Electrostatic energy          :          -0.59719259 Ha         -16.25043712 eV
  | Energy correction for multipole
  | error in Hartree potential    :           0.00000000 Ha           0.00000000 eV
  | Sum of eigenvalues per atom                           :         -12.65995971 eV
  | Total energy (T->0) per atom                          :          -0.43503255 eV  <-- do not rely on this value for anything but (periodic) metals
  | Electronic free energy per atom                       :          -0.43503255 eV
  Initialize hartree_potential_storage
  Max. number of atoms included in rho_multipole:            2

  End scf initialization - timings             :  max(cpu_time)    wall_clock(cpu1)
  | Time for scf. initialization               :        0.041 s           0.041 s
  | Boundary condition initialization          :        0.000 s           0.000 s
  | Integration                                :        0.015 s           0.015 s
  | Solution of K.-S. eqns.                    :        0.007 s           0.008 s
  | Grid partitioning                          :        0.007 s           0.007 s
  | Preloading free-atom quantities on grid    :        0.004 s           0.003 s
  | Free-atom superposition energy             :        0.002 s           0.003 s
  | Total energy evaluation                    :        0.000 s           0.000 s
------------------------------------------------------------

------------------------------------------------------------
          Begin self-consistency iteration #    1

  Date     :  20220120, Time     :  153004.445
------------------------------------------------------------
  Evaluating new KS density.
  Integration grid: deviation in total charge (<rho> - N_e) =  -1.759563E-07
  | <rho_up-rho_dn> = N_up-N_dn =      2.0000; <|rho_up-rho_dn|> =      2.5764
  Pulay mixing of updated and previous charge densities.

  Evaluating partitioned Hartree potential by multipole expansion.
  | Analytical far-field extrapolation by fixed multipoles:
  | Hartree multipole sum: apparent total charge =  -0.259351E-04
  Summing up the Hartree potential.
  Time summed over all CPUs for potential: real work        0.033 s, elapsed        0.034 s
  | RMS charge density error from multipole expansion :   0.929251E-03

  Integrating Hamiltonian matrix: batch-based integration.
  Time summed over all CPUs for integration: real work        0.062 s, elapsed        0.066 s

  Updating Kohn-Sham eigenvalues, eigenvectors, occupation numbers, and Fermi level.
  Solving generalized eigenproblem
  Solving real symmetric generalised eigenvalue problem by standard ScaLAPACK.
  Using Cholesky factor for transformation
  Using 1-stage real ELPA solver
  Solving real symmetric generalised eigenvalue problem by standard ScaLAPACK.
  Using Cholesky factor for transformation
  Using 1-stage real ELPA solver
  Determining occupation numbers for Kohn-Sham eigenstates.
  | Chemical potential (Fermi level) in eV                 : -.97338278E+01
  | Error in electron count due to remaining E_F inaccuracy: 0.00000000E+00
  | Maximum occupation number of highest empty state:  0.00E+00

  Writing Kohn-Sham eigenvalues.

  Spin-up eigenvalues:

  State    Occupation    Eigenvalue [Ha]    Eigenvalue [eV]
      1       1.00000          -0.660811          -17.98157
      2       0.00000           0.048291            1.31407
      3       0.00000           0.064880            1.76547
      4       0.00000           0.177172            4.82110
      5       0.00000           0.202735            5.51669
      6       0.00000           0.202735            5.51669
      7       0.00000           0.312947            8.51573
      8       0.00000           0.635007           17.27943
      9       0.00000           0.635007           17.27943
     10       0.00000           0.684420           18.62401
     11       0.00000           0.730075           19.86634

  Spin-down eigenvalues:

  State    Occupation    Eigenvalue [Ha]    Eigenvalue [eV]
      1       1.00000          -0.491783          -13.38209
      2       0.00000           0.071422            1.94349
      3       0.00000           0.072451            1.97149
      4       0.00000           0.222915            6.06584
      5       0.00000           0.305226            8.30562
      6       0.00000           0.305226            8.30562
      7       0.00000           0.351103            9.55399
      8       0.00000           0.696589           18.95515
      9       0.00000           0.696589           18.95515
     10       0.00000           0.768329           20.90731
     11       0.00000           0.801196           21.80166

  Current spin moment of the entire structure :
  | N = N_up - N_down :    0.00
  | S                 :    0.00
  | J                 :    1.00

  Highest occupied state (VBM) at    -13.38209322 eV
  | Occupation number:      1.00000000
  | Spin channel:        2

  Lowest unoccupied state (CBM) at     1.31406800 eV
  | Occupation number:      0.00000000
  | Spin channel:        1

  Overall HOMO-LUMO gap:     14.69616122 eV.

  Total energy components:
  | Sum of eigenvalues            :          -1.15259345 Ha         -31.36366349 eV
  | XC energy correction          :          -0.39522261 Ha         -10.75455452 eV
  | XC potential correction       :           0.50379011 Ha          13.70882640 eV
  | Free-atom electrostatic energy:           0.68455756 Ha          18.62775908 eV
  | Hartree energy correction     :           0.08155845 Ha           2.21931822 eV
  | van der Waals energy corr.    :           0.00000000 Ha           0.00000000 eV
  | Entropy correction            :           0.00000000 Ha           0.00000000 eV
  | ---------------------------
  | Total energy                  :          -0.27790994 Ha          -7.56231430 eV
  | Total energy, T -> 0          :          -0.27790994 Ha          -7.56231430 eV  <-- do not rely on this value for anything but (periodic) metals
  | Electronic free energy        :          -0.27790994 Ha          -7.56231430 eV

  Derived energy quantities:
  | Kinetic energy                :           0.89533074 Ha          24.36318900 eV
  | Electrostatic energy          :          -0.77801807 Ha         -21.17094878 eV
  | Energy correction for multipole
  | error in Hartree potential    :           0.00004576 Ha           0.00124516 eV
  | Sum of eigenvalues per atom                           :         -15.68183174 eV
  | Total energy (T->0) per atom                          :          -3.78115715 eV  <-- do not rely on this value for anything but (periodic) metals
  | Electronic free energy per atom                       :          -3.78115715 eV

  Self-consistency convergence accuracy:
  | Change of charge/spin density : 0.1668E+00 0.1668E+00
  | Change of sum of eigenvalues  : -.6044E+01 eV
  | Change of total energy        : -.6692E+01 eV

  End self-consistency iteration #     1       :  max(cpu_time)    wall_clock(cpu1)
  | Time for this iteration                    :        0.025 s           0.025 s
  | Charge density update                      :        0.006 s           0.006 s
  | Density mixing                             :        0.001 s           0.000 s
  | Hartree multipole update                   :        0.001 s           0.002 s
  | Hartree multipole summation                :        0.005 s           0.005 s
  | Integration                                :        0.008 s           0.008 s
  | Solution of K.-S. eqns.                    :        0.001 s           0.002 s
  | Total energy evaluation                    :        0.000 s           0.001 s
------------------------------------------------------------

------------------------------------------------------------
          Begin self-consistency iteration #    2

  Date     :  20220120, Time     :  153004.471
------------------------------------------------------------
  Evaluating new KS density.
  Integration grid: deviation in total charge (<rho> - N_e) =  -1.055738E-07
  | <rho_up-rho_dn> = N_up-N_dn =     -2.0000; <|rho_up-rho_dn|> =      2.0000
  Pulay mixing of updated and previous charge densities.

  Evaluating partitioned Hartree potential by multipole expansion.
  | Analytical far-field extrapolation by fixed multipoles:
  | Hartree multipole sum: apparent total charge =  -0.231025E-04
  Summing up the Hartree potential.
  Time summed over all CPUs for potential: real work        0.032 s, elapsed        0.033 s
  | RMS charge density error from multipole expansion :   0.113971E-02

  Integrating Hamiltonian matrix: batch-based integration.
  Time summed over all CPUs for integration: real work        0.066 s, elapsed        0.072 s

  Updating Kohn-Sham eigenvalues, eigenvectors, occupation numbers, and Fermi level.
  Solving generalized eigenproblem
  Solving real symmetric generalised eigenvalue problem by standard ScaLAPACK.
  Using Cholesky factor for transformation
  Using 1-stage real ELPA solver
  Solving real symmetric generalised eigenvalue problem by standard ScaLAPACK.
  Using Cholesky factor for transformation
  Using 1-stage real ELPA solver
  Determining occupation numbers for Kohn-Sham eigenstates.
  | Chemical potential (Fermi level) in eV                 : -.15087301E+02
  | Error in electron count due to remaining E_F inaccuracy: 0.00000000E+00
  | Maximum occupation number of highest empty state:  0.00E+00

  Current spin moment of the entire structure :
  | N = N_up - N_down :    0.00
  | S                 :    0.00
  | J                 :    1.00

  Highest occupied state (VBM) at    -18.17266655 eV
  | Occupation number:      1.00000000
  | Spin channel:        2

  Lowest unoccupied state (CBM) at     1.12187364 eV
  | Occupation number:      0.00000000
  | Spin channel:        1

  Overall HOMO-LUMO gap:     19.29454020 eV.

  Total energy components:
  | Sum of eigenvalues            :          -1.57092291 Ha         -42.74698741 eV
  | XC energy correction          :          -0.63143795 Ha         -17.18230096 eV
  | XC potential correction       :           0.81195683 Ha          22.09446958 eV
  | Free-atom electrostatic energy:           0.68455756 Ha          18.62775908 eV
  | Hartree energy correction     :           0.03432835 Ha           0.93412197 eV
  | van der Waals energy corr.    :           0.00000000 Ha           0.00000000 eV
  | Entropy correction            :           0.00000000 Ha           0.00000000 eV
  | ---------------------------
  | Total energy                  :          -0.67151812 Ha         -18.27293774 eV
  | Total energy, T -> 0          :          -0.67151812 Ha         -18.27293774 eV  <-- do not rely on this value for anything but (periodic) metals
  | Electronic free energy        :          -0.67151812 Ha         -18.27293774 eV

  Derived energy quantities:
  | Kinetic energy                :           0.81017750 Ha          22.04605154 eV
  | Electrostatic energy          :          -0.85025767 Ha         -23.13668832 eV
  | Energy correction for multipole
  | error in Hartree potential    :           0.00007213 Ha           0.00196280 eV
  | Sum of eigenvalues per atom                           :         -21.37349371 eV
  | Total energy (T->0) per atom                          :          -9.13646887 eV  <-- do not rely on this value for anything but (periodic) metals
  | Electronic free energy per atom                       :          -9.13646887 eV

  Self-consistency convergence accuracy:
  | Change of charge/spin density : 0.1981E+00 0.3836E+00
  | Change of sum of eigenvalues  : -.1138E+02 eV
  | Change of total energy        : -.1071E+02 eV

  End self-consistency iteration #     2       :  max(cpu_time)    wall_clock(cpu1)
  | Time for this iteration                    :        0.025 s           0.025 s
  | Charge density update                      :        0.006 s           0.006 s
  | Density mixing                             :        0.001 s           0.001 s
  | Hartree multipole update                   :        0.001 s           0.001 s
  | Hartree multipole summation                :        0.004 s           0.005 s
  | Integration                                :        0.009 s           0.009 s
  | Solution of K.-S. eqns.                    :        0.002 s           0.002 s
  | Total energy evaluation                    :        0.000 s           0.001 s
------------------------------------------------------------

------------------------------------------------------------
          Begin self-consistency iteration #    3

  Date     :  20220120, Time     :  153004.500
------------------------------------------------------------
  Evaluating new KS density.
  Integration grid: deviation in total charge (<rho> - N_e) =  -9.523333E-08
  | <rho_up-rho_dn> = N_up-N_dn =     -1.7062; <|rho_up-rho_dn|> =      1.7062
  Pulay mixing of updated and previous charge densities.

  Evaluating partitioned Hartree potential by multipole expansion.
  | Analytical far-field extrapolation by fixed multipoles:
  | Hartree multipole sum: apparent total charge =  -0.258852E-04
  Summing up the Hartree potential.
  Time summed over all CPUs for potential: real work        0.032 s, elapsed        0.033 s
  | RMS charge density error from multipole expansion :   0.444023E-03

  Integrating Hamiltonian matrix: batch-based integration.
  Time summed over all CPUs for integration: real work        0.062 s, elapsed        0.066 s

  Updating Kohn-Sham eigenvalues, eigenvectors, occupation numbers, and Fermi level.
  Solving generalized eigenproblem
  Solving real symmetric generalised eigenvalue problem by standard ScaLAPACK.
  Using Cholesky factor for transformation
  Using 1-stage real ELPA solver
  Solving real symmetric generalised eigenvalue problem by standard ScaLAPACK.
  Using Cholesky factor for transformation
  Using 1-stage real ELPA solver
  Determining occupation numbers for Kohn-Sham eigenstates.
  | Chemical potential (Fermi level) in eV                 : -.10414931E+02
  | Error in electron count due to remaining E_F inaccuracy: 0.00000000E+00
  | Maximum occupation number of highest empty state:  0.00E+00

  Current spin moment of the entire structure :
  | N = N_up - N_down :    0.00
  | S                 :    0.00
  | J                 :    1.00

  Highest occupied state (VBM) at    -14.60400518 eV
  | Occupation number:      1.00000000
  | Spin channel:        2

  Lowest unoccupied state (CBM) at     0.98051221 eV
  | Occupation number:      0.00000000
  | Spin channel:        1

  Overall HOMO-LUMO gap:     15.58451739 eV.

  Total energy components:
  | Sum of eigenvalues            :          -1.22261014 Ha         -33.26891463 eV
  | XC energy correction          :          -0.40600866 Ha         -11.04805777 eV
  | XC potential correction       :           0.51857678 Ha          14.11119212 eV
  | Free-atom electrostatic energy:           0.68455756 Ha          18.62775908 eV
  | Hartree energy correction     :           0.11510654 Ha           3.13220827 eV
  | van der Waals energy corr.    :           0.00000000 Ha           0.00000000 eV
  | Entropy correction            :           0.00000000 Ha           0.00000000 eV
  | ---------------------------
  | Total energy                  :          -0.31037792 Ha          -8.44581292 eV
  | Total energy, T -> 0          :          -0.31037792 Ha          -8.44581292 eV  <-- do not rely on this value for anything but (periodic) metals
  | Electronic free energy        :          -0.31037792 Ha          -8.44581292 eV

  Derived energy quantities:
  | Kinetic energy                :           0.72586087 Ha          19.75167922 eV
  | Electrostatic energy          :          -0.63023013 Ha         -17.14943437 eV
  | Energy correction for multipole
  | error in Hartree potential    :           0.00001286 Ha           0.00034999 eV
  | Sum of eigenvalues per atom                           :         -16.63445731 eV
  | Total energy (T->0) per atom                          :          -4.22290646 eV  <-- do not rely on this value for anything but (periodic) metals
  | Electronic free energy per atom                       :          -4.22290646 eV

  Self-consistency convergence accuracy:
  | Change of charge/spin density : 0.3613E+00 0.3016E+00
  | Change of sum of eigenvalues  : 0.9478E+01 eV
  | Change of total energy        : 0.9827E+01 eV

  End self-consistency iteration #     3       :  max(cpu_time)    wall_clock(cpu1)
  | Time for this iteration                    :        0.024 s           0.024 s
  | Charge density update                      :        0.006 s           0.006 s
  | Density mixing                             :        0.001 s           0.001 s
  | Hartree multipole update                   :        0.001 s           0.001 s
  | Hartree multipole summation                :        0.004 s           0.005 s
  | Integration                                :        0.008 s           0.008 s
  | Solution of K.-S. eqns.                    :        0.001 s           0.002 s
  | Total energy evaluation                    :        0.000 s           0.000 s
------------------------------------------------------------

------------------------------------------------------------
          Begin self-consistency iteration #    4

  Date     :  20220120, Time     :  153004.529
------------------------------------------------------------
  Evaluating new KS density.
  Integration grid: deviation in total charge (<rho> - N_e) =  -1.029029E-07
  | <rho_up-rho_dn> = N_up-N_dn =     -1.8859; <|rho_up-rho_dn|> =      1.8859
  Pulay mixing of updated and previous charge densities.

  Evaluating partitioned Hartree potential by multipole expansion.
  | Analytical far-field extrapolation by fixed multipoles:
  | Hartree multipole sum: apparent total charge =  -0.337486E-04
  Summing up the Hartree potential.
  Time summed over all CPUs for potential: real work        0.032 s, elapsed        0.033 s
  | RMS charge density error from multipole expansion :   0.596519E-02

  Integrating Hamiltonian matrix: batch-based integration.
  Time summed over all CPUs for integration: real work        0.062 s, elapsed        0.067 s

  Updating Kohn-Sham eigenvalues, eigenvectors, occupation numbers, and Fermi level.
  Solving generalized eigenproblem
  Solving real symmetric generalised eigenvalue problem by standard ScaLAPACK.
  Using Cholesky factor for transformation
  Using 1-stage real ELPA solver
  Solving real symmetric generalised eigenvalue problem by standard ScaLAPACK.
  Using Cholesky factor for transformation
  Using 1-stage real ELPA solver
  Determining occupation numbers for Kohn-Sham eigenstates.
  | Chemical potential (Fermi level) in eV                 : -.23447543E+02
  | Error in electron count due to remaining E_F inaccuracy: 0.00000000E+00
  | Maximum occupation number of highest empty state:  0.00E+00

  Current spin moment of the entire structure :
  | N = N_up - N_down :    0.00
  | S                 :    0.00
  | J                 :    1.00

  Highest occupied state (VBM) at    -25.03920001 eV
  | Occupation number:      1.00000000
  | Spin channel:        2

  Lowest unoccupied state (CBM) at    -0.69394970 eV
  | Occupation number:      0.00000000
  | Spin channel:        1

  Overall HOMO-LUMO gap:     24.34525031 eV.

  Total energy components:
  | Sum of eigenvalues            :          -1.89952169 Ha         -51.68861517 eV
  | XC energy correction          :          -0.48483881 Ha         -13.19313526 eV
  | XC potential correction       :           0.62195234 Ha          16.92418416 eV
  | Free-atom electrostatic energy:           0.68455756 Ha          18.62775908 eV
  | Hartree energy correction     :           0.33390045 Ha           9.08589355 eV
  | van der Waals energy corr.    :           0.00000000 Ha           0.00000000 eV
  | Entropy correction            :           0.00000000 Ha           0.00000000 eV
  | ---------------------------
  | Total energy                  :          -0.74395015 Ha         -20.24391363 eV
  | Total energy, T -> 0          :          -0.74395015 Ha         -20.24391363 eV  <-- do not rely on this value for anything but (periodic) metals
  | Electronic free energy        :          -0.74395015 Ha         -20.24391363 eV

  Derived energy quantities:
  | Kinetic energy                :          -1.60130811 Ha         -43.57381079 eV
  | Electrostatic energy          :           1.34219677 Ha          36.52303242 eV
  | Energy correction for multipole
  | error in Hartree potential    :          -0.00035807 Ha          -0.00974360 eV
  | Sum of eigenvalues per atom                           :         -25.84430758 eV
  | Total energy (T->0) per atom                          :         -10.12195682 eV  <-- do not rely on this value for anything but (periodic) metals
  | Electronic free energy per atom                       :         -10.12195682 eV

  Self-consistency convergence accuracy:
  | Change of charge/spin density : 0.2510E+00 0.3530E+00
  | Change of sum of eigenvalues  : -.1842E+02 eV
  | Change of total energy        : -.1180E+02 eV

  End self-consistency iteration #     4       :  max(cpu_time)    wall_clock(cpu1)
  | Time for this iteration                    :        0.028 s           0.024 s
  | Charge density update                      :        0.010 s           0.005 s
  | Density mixing                             :        0.001 s           0.002 s
  | Hartree multipole update                   :        0.001 s           0.001 s
  | Hartree multipole summation                :        0.004 s           0.004 s
  | Integration                                :        0.008 s           0.009 s
  | Solution of K.-S. eqns.                    :        0.001 s           0.001 s
  | Total energy evaluation                    :        0.000 s           0.000 s
------------------------------------------------------------

------------------------------------------------------------
          Begin self-consistency iteration #    5

  Date     :  20220120, Time     :  153004.554
------------------------------------------------------------
  Evaluating new KS density.
  Integration grid: deviation in total charge (<rho> - N_e) =  -1.062215E-07
  | <rho_up-rho_dn> = N_up-N_dn =     -1.7788; <|rho_up-rho_dn|> =      1.7788
  Pulay mixing of updated and previous charge densities.

  Evaluating partitioned Hartree potential by multipole expansion.
  | Analytical far-field extrapolation by fixed multipoles:
  | Hartree multipole sum: apparent total charge =   0.231776E-04
  Summing up the Hartree potential.
  Time summed over all CPUs for potential: real work        0.032 s, elapsed        0.033 s
  | RMS charge density error from multipole expansion :   0.230460E-01

  Integrating Hamiltonian matrix: batch-based integration.
  Time summed over all CPUs for integration: real work        0.061 s, elapsed        0.066 s

  Updating Kohn-Sham eigenvalues, eigenvectors, occupation numbers, and Fermi level.
  Solving generalized eigenproblem
  Solving real symmetric generalised eigenvalue problem by standard ScaLAPACK.
  Using Cholesky factor for transformation
  Using 1-stage real ELPA solver
  Solving real symmetric generalised eigenvalue problem by standard ScaLAPACK.
  Using Cholesky factor for transformation
  Using 1-stage real ELPA solver
  Determining occupation numbers for Kohn-Sham eigenstates.
  | Chemical potential (Fermi level) in eV                 : 0.20271176E+01
  | Error in electron count due to remaining E_F inaccuracy: 0.00000000E+00
  | Maximum occupation number of highest empty state:  0.00E+00

  Current spin moment of the entire structure :
  | N = N_up - N_down :    0.00
  | S                 :    0.00
  | J                 :    1.00

  Highest occupied state (VBM) at      1.69587717 eV
  | Occupation number:      1.00000000
  | Spin channel:        2
 * WARNING: The VBM is higher than the internal energy zero!

  Lowest unoccupied state (CBM) at     2.38596795 eV
  | Occupation number:      0.00000000
  | Spin channel:        1

  Overall HOMO-LUMO gap:      0.69009078 eV.

  Total energy components:
  | Sum of eigenvalues            :           0.12083024 Ha           3.28795820 eV
  | XC energy correction          :          -2.77503949 Ha         -75.51266645 eV
  | XC potential correction       :           3.58816662 Ha          97.63898152 eV
  | Free-atom electrostatic energy:           0.68455756 Ha          18.62775908 eV
  | Hartree energy correction     :          -4.95754217 Ha        -134.90158614 eV
  | van der Waals energy corr.    :           0.00000000 Ha           0.00000000 eV
  | Entropy correction            :           0.00000000 Ha           0.00000000 eV
  | ---------------------------
  | Total energy                  :          -3.33902723 Ha         -90.85955377 eV
  | Total energy, T -> 0          :          -3.33902723 Ha         -90.85955377 eV  <-- do not rely on this value for anything but (periodic) metals
  | Electronic free energy        :          -3.33902723 Ha         -90.85955377 eV

  Derived energy quantities:
  | Kinetic energy                :           3.21978187 Ha          87.61472243 eV
  | Electrostatic energy          :          -3.78376961 Ha        -102.96160976 eV
  | Energy correction for multipole
  | error in Hartree potential    :           0.00182253 Ha           0.04959359 eV
  | Sum of eigenvalues per atom                           :           1.64397910 eV
  | Total energy (T->0) per atom                          :         -45.42977689 eV  <-- do not rely on this value for anything but (periodic) metals
  | Electronic free energy per atom                       :         -45.42977689 eV

  Self-consistency convergence accuracy:
  | Change of charge/spin density : 0.9649E+00 0.2616E+00
  | Change of sum of eigenvalues  : 0.5498E+02 eV
  | Change of total energy        : -.7062E+02 eV

  End self-consistency iteration #     5       :  max(cpu_time)    wall_clock(cpu1)
  | Time for this iteration                    :        0.024 s           0.024 s
  | Charge density update                      :        0.006 s           0.006 s
  | Density mixing                             :        0.001 s           0.001 s
  | Hartree multipole update                   :        0.001 s           0.002 s
  | Hartree multipole summation                :        0.004 s           0.004 s
  | Integration                                :        0.008 s           0.009 s
  | Solution of K.-S. eqns.                    :        0.001 s           0.001 s
  | Total energy evaluation                    :        0.000 s           0.001 s
------------------------------------------------------------

------------------------------------------------------------
          Begin self-consistency iteration #    6

  Date     :  20220120, Time     :  153004.580
------------------------------------------------------------
  Evaluating new KS density.
  Integration grid: deviation in total charge (<rho> - N_e) =  -7.732969E-09
  | <rho_up-rho_dn> = N_up-N_dn =     -0.1014; <|rho_up-rho_dn|> =      1.0156
  Pulay mixing of updated and previous charge densities.

  Evaluating partitioned Hartree potential by multipole expansion.
  | Analytical far-field extrapolation by fixed multipoles:
  | Hartree multipole sum: apparent total charge =   0.990109E-05
  Summing up the Hartree potential.
  Time summed over all CPUs for potential: real work        0.032 s, elapsed        0.033 s
  | RMS charge density error from multipole expansion :   0.177159E-01

  Integrating Hamiltonian matrix: batch-based integration.
  Time summed over all CPUs for integration: real work        0.063 s, elapsed        0.069 s

  Updating Kohn-Sham eigenvalues, eigenvectors, occupation numbers, and Fermi level.
  Solving generalized eigenproblem
  Solving real symmetric generalised eigenvalue problem by standard ScaLAPACK.
  Using Cholesky factor for transformation
  Using 1-stage real ELPA solver
  Solving real symmetric generalised eigenvalue problem by standard ScaLAPACK.
  Using Cholesky factor for transformation
  Using 1-stage real ELPA solver
  Determining occupation numbers for Kohn-Sham eigenstates.
  | Chemical potential (Fermi level) in eV                 : 0.12784513E+01
  | Error in electron count due to remaining E_F inaccuracy: 0.00000000E+00
  | Maximum occupation number of highest empty state:  0.00E+00

  Current spin moment of the entire structure :
  | N = N_up - N_down :    0.00
  | S                 :    0.00
  | J                 :    1.00

  Highest occupied state (VBM) at      0.35131359 eV
  | Occupation number:      1.00000000
  | Spin channel:        1
 * WARNING: The VBM is higher than the internal energy zero!

  Lowest unoccupied state (CBM) at     1.48481964 eV
  | Occupation number:      0.00000000
  | Spin channel:        2

  Overall HOMO-LUMO gap:      1.13350605 eV.

  Total energy components:
  | Sum of eigenvalues            :           0.02441820 Ha           0.66445310 eV
  | XC energy correction          :          -2.11755734 Ha         -57.62166704 eV
  | XC potential correction       :           2.73255878 Ha          74.35670759 eV
  | Free-atom electrostatic energy:           0.68455756 Ha          18.62775908 eV
  | Hartree energy correction     :          -3.22867883 Ha         -87.85682094 eV
  | van der Waals energy corr.    :           0.00000000 Ha           0.00000000 eV
  | Entropy correction            :           0.00000000 Ha           0.00000000 eV
  | ---------------------------
  | Total energy                  :          -1.90470162 Ha         -51.82956821 eV
  | Total energy, T -> 0          :          -1.90470162 Ha         -51.82956821 eV  <-- do not rely on this value for anything but (periodic) metals
  | Electronic free energy        :          -1.90470162 Ha         -51.82956821 eV

  Derived energy quantities:
  | Kinetic energy                :           3.81394932 Ha         103.78284141 eV
  | Electrostatic energy          :          -3.60109360 Ha         -97.99074258 eV
  | Energy correction for multipole
  | error in Hartree potential    :           0.00136075 Ha           0.03702776 eV
  | Sum of eigenvalues per atom                           :           0.33222655 eV
  | Total energy (T->0) per atom                          :         -25.91478411 eV  <-- do not rely on this value for anything but (periodic) metals
  | Electronic free energy per atom                       :         -25.91478411 eV

  Self-consistency convergence accuracy:
  | Change of charge/spin density : 0.2152E+01 0.4904E+00
  | Change of sum of eigenvalues  : -.2624E+01 eV
  | Change of total energy        : 0.3903E+02 eV

  End self-consistency iteration #     6       :  max(cpu_time)    wall_clock(cpu1)
  | Time for this iteration                    :        0.025 s           0.024 s
  | Charge density update                      :        0.006 s           0.006 s
  | Density mixing                             :        0.001 s           0.001 s
  | Hartree multipole update                   :        0.001 s           0.001 s
  | Hartree multipole summation                :        0.004 s           0.005 s
  | Integration                                :        0.009 s           0.009 s
  | Solution of K.-S. eqns.                    :        0.001 s           0.001 s
  | Total energy evaluation                    :        0.000 s           0.001 s
------------------------------------------------------------

------------------------------------------------------------
          Begin self-consistency iteration #    7

  Date     :  20220120, Time     :  153004.610
------------------------------------------------------------
  Evaluating new KS density.
  Integration grid: deviation in total charge (<rho> - N_e) =  -4.809652E-09
  | <rho_up-rho_dn> = N_up-N_dn =      0.1093; <|rho_up-rho_dn|> =      0.8458
  Pulay mixing of updated and previous charge densities.

  Evaluating partitioned Hartree potential by multipole expansion.
  | Analytical far-field extrapolation by fixed multipoles:
  | Hartree multipole sum: apparent total charge =   0.387198E-05
  Summing up the Hartree potential.
  Time summed over all CPUs for potential: real work        0.032 s, elapsed        0.033 s
  | RMS charge density error from multipole expansion :   0.146740E-01

  Integrating Hamiltonian matrix: batch-based integration.
  Time summed over all CPUs for integration: real work        0.064 s, elapsed        0.069 s

  Updating Kohn-Sham eigenvalues, eigenvectors, occupation numbers, and Fermi level.
  Solving generalized eigenproblem
  Solving real symmetric generalised eigenvalue problem by standard ScaLAPACK.
  Using Cholesky factor for transformation
  Using 1-stage real ELPA solver
  Solving real symmetric generalised eigenvalue problem by standard ScaLAPACK.
  Using Cholesky factor for transformation
  Using 1-stage real ELPA solver
  Determining occupation numbers for Kohn-Sham eigenstates.
  | Chemical potential (Fermi level) in eV                 : 0.52489445E+00
  | Error in electron count due to remaining E_F inaccuracy: 0.00000000E+00
  | Maximum occupation number of highest empty state:  0.00E+00

  Current spin moment of the entire structure :
  | N = N_up - N_down :    0.00
  | S                 :    0.00
  | J                 :    1.00

  Highest occupied state (VBM) at     -0.70709136 eV
  | Occupation number:      1.00000000
  | Spin channel:        2

  Lowest unoccupied state (CBM) at     1.20577525 eV
  | Occupation number:      0.00000000
  | Spin channel:        2

  Overall HOMO-LUMO gap:      1.91286661 eV.

  Total energy components:
  | Sum of eigenvalues            :          -0.05483442 Ha          -1.49212054 eV
  | XC energy correction          :          -1.76735567 Ha         -48.09219465 eV
  | XC potential correction       :           2.27752485 Ha          61.97460453 eV
  | Free-atom electrostatic energy:           0.68455756 Ha          18.62775908 eV
  | Hartree energy correction     :          -2.37788627 Ha         -64.70557772 eV
  | van der Waals energy corr.    :           0.00000000 Ha           0.00000000 eV
  | Entropy correction            :           0.00000000 Ha           0.00000000 eV
  | ---------------------------
  | Total energy                  :          -1.23799395 Ha         -33.68752929 eV
  | Total energy, T -> 0          :          -1.23799395 Ha         -33.68752929 eV  <-- do not rely on this value for anything but (periodic) metals
  | Electronic free energy        :          -1.23799395 Ha         -33.68752929 eV

  Derived energy quantities:
  | Kinetic energy                :           3.88005779 Ha         105.58174440 eV
  | Electrostatic energy          :          -3.35069607 Ha         -91.17707904 eV
  | Energy correction for multipole
  | error in Hartree potential    :           0.00110542 Ha           0.03008013 eV
  | Sum of eigenvalues per atom                           :          -0.74606027 eV
  | Total energy (T->0) per atom                          :         -16.84376465 eV  <-- do not rely on this value for anything but (periodic) metals
  | Electronic free energy per atom                       :         -16.84376465 eV

  Self-consistency convergence accuracy:
  | Change of charge/spin density : 0.1686E+01 0.3294E+00
  | Change of sum of eigenvalues  : -.2157E+01 eV
  | Change of total energy        : 0.1814E+02 eV

  End self-consistency iteration #     7       :  max(cpu_time)    wall_clock(cpu1)
  | Time for this iteration                    :        0.025 s           0.024 s
  | Charge density update                      :        0.006 s           0.005 s
  | Density mixing                             :        0.002 s           0.002 s
  | Hartree multipole update                   :        0.001 s           0.001 s
  | Hartree multipole summation                :        0.004 s           0.005 s
  | Integration                                :        0.009 s           0.009 s
  | Solution of K.-S. eqns.                    :        0.001 s           0.001 s
  | Total energy evaluation                    :        0.000 s           0.000 s
------------------------------------------------------------

------------------------------------------------------------
          Begin self-consistency iteration #    8

  Date     :  20220120, Time     :  153004.640
------------------------------------------------------------
  Evaluating new KS density.
  Integration grid: deviation in total charge (<rho> - N_e) =  -3.509560E-09
  | <rho_up-rho_dn> = N_up-N_dn =      0.1732; <|rho_up-rho_dn|> =      0.8213
  Pulay mixing of updated and previous charge densities.

  Evaluating partitioned Hartree potential by multipole expansion.
  | Analytical far-field extrapolation by fixed multipoles:
  | Hartree multipole sum: apparent total charge =   0.172856E-04
  Summing up the Hartree potential.
  Time summed over all CPUs for potential: real work        0.032 s, elapsed        0.033 s
  | RMS charge density error from multipole expansion :   0.136077E-01

  Integrating Hamiltonian matrix: batch-based integration.
  Time summed over all CPUs for integration: real work        0.064 s, elapsed        0.069 s

  Updating Kohn-Sham eigenvalues, eigenvectors, occupation numbers, and Fermi level.
  Solving generalized eigenproblem
  Solving real symmetric generalised eigenvalue problem by standard ScaLAPACK.
  Using Cholesky factor for transformation
  Using 1-stage real ELPA solver
  Solving real symmetric generalised eigenvalue problem by standard ScaLAPACK.
  Using Cholesky factor for transformation
  Using 1-stage real ELPA solver
  Determining occupation numbers for Kohn-Sham eigenstates.
  | Chemical potential (Fermi level) in eV                 : 0.83882978E+00
  | Error in electron count due to remaining E_F inaccuracy: 0.00000000E+00
  | Maximum occupation number of highest empty state:  0.00E+00

  Current spin moment of the entire structure :
  | N = N_up - N_down :    0.00
  | S                 :    0.00
  | J                 :    1.00

  Highest occupied state (VBM) at     -0.97678785 eV
  | Occupation number:      1.00000000
  | Spin channel:        2

  Lowest unoccupied state (CBM) at     1.75255297 eV
  | Occupation number:      0.00000000
  | Spin channel:        1

  Overall HOMO-LUMO gap:      2.72934082 eV.

  Total energy components:
  | Sum of eigenvalues            :          -0.08561186 Ha          -2.32961722 eV
  | XC energy correction          :          -1.65611009 Ha         -45.06504834 eV
  | XC potential correction       :           2.13296838 Ha          58.04102263 eV
  | Free-atom electrostatic energy:           0.68455756 Ha          18.62775908 eV
  | Hartree energy correction     :          -2.15849741 Ha         -58.73570294 eV
  | van der Waals energy corr.    :           0.00000000 Ha           0.00000000 eV
  | Entropy correction            :           0.00000000 Ha           0.00000000 eV
  | ---------------------------
  | Total energy                  :          -1.08269341 Ha         -29.46158679 eV
  | Total energy, T -> 0          :          -1.08269341 Ha         -29.46158679 eV  <-- do not rely on this value for anything but (periodic) metals
  | Electronic free energy        :          -1.08269341 Ha         -29.46158679 eV

  Derived energy quantities:
  | Kinetic energy                :           3.80701934 Ha         103.59426716 eV
  | Electrostatic energy          :          -3.23360267 Ha         -87.99080561 eV
  | Energy correction for multipole
  | error in Hartree potential    :           0.00102120 Ha           0.02778818 eV
  | Sum of eigenvalues per atom                           :          -1.16480861 eV
  | Total energy (T->0) per atom                          :         -14.73079339 eV  <-- do not rely on this value for anything but (periodic) metals
  | Electronic free energy per atom                       :         -14.73079339 eV

  Self-consistency convergence accuracy:
  | Change of charge/spin density : 0.1339E+01 0.2499E+00
  | Change of sum of eigenvalues  : -.8375E+00 eV
  | Change of total energy        : 0.4226E+01 eV

  End self-consistency iteration #     8       :  max(cpu_time)    wall_clock(cpu1)
  | Time for this iteration                    :        0.026 s           0.025 s
  | Charge density update                      :        0.006 s           0.006 s
  | Density mixing                             :        0.002 s           0.002 s
  | Hartree multipole update                   :        0.001 s           0.001 s
  | Hartree multipole summation                :        0.004 s           0.004 s
  | Integration                                :        0.009 s           0.009 s
  | Solution of K.-S. eqns.                    :        0.002 s           0.002 s
  | Total energy evaluation                    :        0.000 s           0.001 s
------------------------------------------------------------

------------------------------------------------------------
          Begin self-consistency iteration #    9

  Date     :  20220120, Time     :  153004.670
------------------------------------------------------------
  Evaluating new KS density.
  Integration grid: deviation in total charge (<rho> - N_e) =  -1.456038E-08
  | <rho_up-rho_dn> = N_up-N_dn =     -0.0786; <|rho_up-rho_dn|> =      0.6607
  Pulay mixing of updated and previous charge densities.

  Evaluating partitioned Hartree potential by multipole expansion.
  | Analytical far-field extrapolation by fixed multipoles:
  | Hartree multipole sum: apparent total charge =   0.178870E-04
  Summing up the Hartree potential.
  Time summed over all CPUs for potential: real work        0.032 s, elapsed        0.034 s
  | RMS charge density error from multipole expansion :   0.136783E-01

  Integrating Hamiltonian matrix: batch-based integration.
  Time summed over all CPUs for integration: real work        0.066 s, elapsed        0.080 s

  Updating Kohn-Sham eigenvalues, eigenvectors, occupation numbers, and Fermi level.
  Solving generalized eigenproblem
  Solving real symmetric generalised eigenvalue problem by standard ScaLAPACK.
  Using Cholesky factor for transformation
  Using 1-stage real ELPA solver
  Solving real symmetric generalised eigenvalue problem by standard ScaLAPACK.
  Using Cholesky factor for transformation
  Using 1-stage real ELPA solver
  Determining occupation numbers for Kohn-Sham eigenstates.
  | Chemical potential (Fermi level) in eV                 : 0.92438657E+00
  | Error in electron count due to remaining E_F inaccuracy: 0.00000000E+00
  | Maximum occupation number of highest empty state:  0.00E+00

  Current spin moment of the entire structure :
  | N = N_up - N_down :    0.00
  | S                 :    0.00
  | J                 :    1.00

  Highest occupied state (VBM) at     -0.90243781 eV
  | Occupation number:      1.00000000
  | Spin channel:        2

  Lowest unoccupied state (CBM) at     1.80750571 eV
  | Occupation number:      0.00000000
  | Spin channel:        1

  Overall HOMO-LUMO gap:      2.70994352 eV.

  Total energy components:
  | Sum of eigenvalues            :          -0.07967335 Ha          -2.16802215 eV
  | XC energy correction          :          -1.66402710 Ha         -45.28048125 eV
  | XC potential correction       :           2.14323924 Ha          58.32050700 eV
  | Free-atom electrostatic energy:           0.68455756 Ha          18.62775908 eV
  | Hartree energy correction     :          -2.17835160 Ha         -59.27596306 eV
  | van der Waals energy corr.    :           0.00000000 Ha           0.00000000 eV
  | Entropy correction            :           0.00000000 Ha           0.00000000 eV
  | ---------------------------
  | Total energy                  :          -1.09425525 Ha         -29.77620037 eV
  | Total energy, T -> 0          :          -1.09425525 Ha         -29.77620037 eV  <-- do not rely on this value for anything but (periodic) metals
  | Electronic free energy        :          -1.09425525 Ha         -29.77620037 eV

  Derived energy quantities:
  | Kinetic energy                :           3.81109240 Ha         103.70510068 eV
  | Electrostatic energy          :          -3.24132055 Ha         -88.20081979 eV
  | Energy correction for multipole
  | error in Hartree potential    :           0.00102718 Ha           0.02795105 eV
  | Sum of eigenvalues per atom                           :          -1.08401108 eV
  | Total energy (T->0) per atom                          :         -14.88810019 eV  <-- do not rely on this value for anything but (periodic) metals
  | Electronic free energy per atom                       :         -14.88810019 eV

  Self-consistency convergence accuracy:
  | Change of charge/spin density : 0.1174E+01 0.2476E+00
  | Change of sum of eigenvalues  : 0.1616E+00 eV
  | Change of total energy        : -.3146E+00 eV

  End self-consistency iteration #     9       :  max(cpu_time)    wall_clock(cpu1)
  | Time for this iteration                    :        0.028 s           0.027 s
  | Charge density update                      :        0.007 s           0.006 s
  | Density mixing                             :        0.002 s           0.002 s
  | Hartree multipole update                   :        0.001 s           0.001 s
  | Hartree multipole summation                :        0.005 s           0.005 s
  | Integration                                :        0.010 s           0.010 s
  | Solution of K.-S. eqns.                    :        0.002 s           0.002 s
  | Total energy evaluation                    :        0.000 s           0.000 s
------------------------------------------------------------

------------------------------------------------------------
          Begin self-consistency iteration #   10

  Date     :  20220120, Time     :  153004.699
------------------------------------------------------------
  Evaluating new KS density.
  Integration grid: deviation in total charge (<rho> - N_e) =  -1.445430E-08
  | <rho_up-rho_dn> = N_up-N_dn =     -0.0768; <|rho_up-rho_dn|> =      0.6621
  Pulay mixing of updated and previous charge densities.

  Evaluating partitioned Hartree potential by multipole expansion.
  | Analytical far-field extrapolation by fixed multipoles:
  | Hartree multipole sum: apparent total charge =  -0.179022E-04
  Summing up the Hartree potential.
  Time summed over all CPUs for potential: real work        0.033 s, elapsed        0.039 s
  | RMS charge density error from multipole expansion :   0.910539E-02

  Integrating Hamiltonian matrix: batch-based integration.
  Time summed over all CPUs for integration: real work        0.069 s, elapsed        0.082 s

  Updating Kohn-Sham eigenvalues, eigenvectors, occupation numbers, and Fermi level.
  Solving generalized eigenproblem
  Solving real symmetric generalised eigenvalue problem by standard ScaLAPACK.
  Using Cholesky factor for transformation
  Using 1-stage real ELPA solver
  Solving real symmetric generalised eigenvalue problem by standard ScaLAPACK.
  Using Cholesky factor for transformation
  Using 1-stage real ELPA solver
  Determining occupation numbers for Kohn-Sham eigenstates.
  | Chemical potential (Fermi level) in eV                 : -.56610733E+01
  | Error in electron count due to remaining E_F inaccuracy: 0.00000000E+00
  | Maximum occupation number of highest empty state:  0.00E+00

  Current spin moment of the entire structure :
  | N = N_up - N_down :    0.00
  | S                 :    0.00
  | J                 :    1.00

  Highest occupied state (VBM) at     -7.49015099 eV
  | Occupation number:      1.00000000
  | Spin channel:        2

  Lowest unoccupied state (CBM) at     0.43624989 eV
  | Occupation number:      0.00000000
  | Spin channel:        2

  Overall HOMO-LUMO gap:      7.92640088 eV.

  Total energy components:
  | Sum of eigenvalues            :          -0.57179965 Ha         -15.55946014 eV
  | XC energy correction          :          -1.19536426 Ha         -32.52751659 eV
  | XC potential correction       :           1.53550144 Ha          41.78312008 eV
  | Free-atom electrostatic energy:           0.68455756 Ha          18.62775908 eV
  | Hartree energy correction     :          -1.11188316 Ha         -30.25588013 eV
  | van der Waals energy corr.    :           0.00000000 Ha           0.00000000 eV
  | Entropy correction            :           0.00000000 Ha           0.00000000 eV
  | ---------------------------
  | Total energy                  :          -0.65898807 Ha         -17.93197769 eV
  | Total energy, T -> 0          :          -0.65898807 Ha         -17.93197769 eV  <-- do not rely on this value for anything but (periodic) metals
  | Electronic free energy        :          -0.65898807 Ha         -17.93197769 eV

  Derived energy quantities:
  | Kinetic energy                :           3.12538867 Ha          85.04615289 eV
  | Electrostatic energy          :          -2.58901248 Ha         -70.45061400 eV
  | Energy correction for multipole
  | error in Hartree potential    :           0.00066718 Ha           0.01815492 eV
  | Sum of eigenvalues per atom                           :          -7.77973007 eV
  | Total energy (T->0) per atom                          :          -8.96598885 eV  <-- do not rely on this value for anything but (periodic) metals
  | Electronic free energy per atom                       :          -8.96598885 eV

  Self-consistency convergence accuracy:
  | Change of charge/spin density : 0.1184E+01 0.2489E+00
  | Change of sum of eigenvalues  : -.1339E+02 eV
  | Change of total energy        : 0.1184E+02 eV

  End self-consistency iteration #    10       :  max(cpu_time)    wall_clock(cpu1)
  | Time for this iteration                    :        0.029 s           0.030 s
  | Charge density update                      :        0.007 s           0.008 s
  | Density mixing                             :        0.002 s           0.001 s
  | Hartree multipole update                   :        0.001 s           0.002 s
  | Hartree multipole summation                :        0.005 s           0.005 s
  | Integration                                :        0.011 s           0.011 s
  | Solution of K.-S. eqns.                    :        0.001 s           0.002 s
  | Total energy evaluation                    :        0.000 s           0.001 s
------------------------------------------------------------

------------------------------------------------------------
          Begin self-consistency iteration #   11

  Date     :  20220120, Time     :  153004.731
------------------------------------------------------------
  Evaluating new KS density.
  Integration grid: deviation in total charge (<rho> - N_e) =  -1.382636E-08
  | <rho_up-rho_dn> = N_up-N_dn =     -0.0175; <|rho_up-rho_dn|> =      0.3011
  Pulay mixing of updated and previous charge densities.

  Evaluating partitioned Hartree potential by multipole expansion.
  | Analytical far-field extrapolation by fixed multipoles:
  | Hartree multipole sum: apparent total charge =  -0.434585E-04
  Summing up the Hartree potential.
  Time summed over all CPUs for potential: real work        0.034 s, elapsed        0.041 s
  | RMS charge density error from multipole expansion :   0.452797E-02

  Integrating Hamiltonian matrix: batch-based integration.
  Time summed over all CPUs for integration: real work        0.073 s, elapsed        0.085 s

  Updating Kohn-Sham eigenvalues, eigenvectors, occupation numbers, and Fermi level.
  Solving generalized eigenproblem
  Solving real symmetric generalised eigenvalue problem by standard ScaLAPACK.
  Using Cholesky factor for transformation
  Using 1-stage real ELPA solver
  Solving real symmetric generalised eigenvalue problem by standard ScaLAPACK.
  Using Cholesky factor for transformation
  Using 1-stage real ELPA solver
  Determining occupation numbers for Kohn-Sham eigenstates.
  | Chemical potential (Fermi level) in eV                 : -.14183826E+02
  | Error in electron count due to remaining E_F inaccuracy: 0.00000000E+00
  | Maximum occupation number of highest empty state:  0.00E+00

  Current spin moment of the entire structure :
  | N = N_up - N_down :    0.00
  | S                 :    0.00
  | J                 :    1.00

  Highest occupied state (VBM) at    -16.54419436 eV
  | Occupation number:      1.00000000
  | Spin channel:        2

  Lowest unoccupied state (CBM) at    -0.47685883 eV
  | Occupation number:      0.00000000
  | Spin channel:        2

  Overall HOMO-LUMO gap:     16.06733553 eV.

  Total energy components:
  | Sum of eigenvalues            :          -1.22881220 Ha         -33.43768133 eV
  | XC energy correction          :          -0.81781511 Ha         -22.25388136 eV
  | XC potential correction       :           1.04733219 Ha          28.49935898 eV
  | Free-atom electrostatic energy:           0.68455756 Ha          18.62775908 eV
  | Hartree energy correction     :          -0.33700425 Ha          -9.17035220 eV
  | van der Waals energy corr.    :           0.00000000 Ha           0.00000000 eV
  | Entropy correction            :           0.00000000 Ha           0.00000000 eV
  | ---------------------------
  | Total energy                  :          -0.65174180 Ha         -17.73479682 eV
  | Total energy, T -> 0          :          -0.65174180 Ha         -17.73479682 eV  <-- do not rely on this value for anything but (periodic) metals
  | Electronic free energy        :          -0.65174180 Ha         -17.73479682 eV

  Derived energy quantities:
  | Kinetic energy                :           1.83180289 Ha          49.84589284 eV
  | Electrostatic energy          :          -1.66572959 Ha         -45.32680830 eV
  | Energy correction for multipole
  | error in Hartree potential    :           0.00033377 Ha           0.00908240 eV
  | Sum of eigenvalues per atom                           :         -16.71884066 eV
[...]
  | Change of sum of eigenvalues  : 0.6614E-04 eV
  | Change of total energy        : -.2164E-06 eV

  End self-consistency iteration #    27       :  max(cpu_time)    wall_clock(cpu1)
  | Time for this iteration                    :        0.028 s           0.028 s
  | Charge density update                      :        0.007 s           0.007 s
  | Density mixing                             :        0.002 s           0.002 s
  | Hartree multipole update                   :        0.001 s           0.001 s
  | Hartree multipole summation                :        0.005 s           0.005 s
  | Integration                                :        0.010 s           0.010 s
  | Solution of K.-S. eqns.                    :        0.001 s           0.002 s
  | Total energy evaluation                    :        0.000 s           0.001 s
------------------------------------------------------------

------------------------------------------------------------
          Begin self-consistency iteration #   28

  Date     :  20220120, Time     :  153005.240
------------------------------------------------------------
  Evaluating new KS density.
  Integration grid: deviation in total charge (<rho> - N_e) =  -4.177547E-12
  | <rho_up-rho_dn> = N_up-N_dn =     -0.0000; <|rho_up-rho_dn|> =      0.0000
  Pulay mixing of updated and previous charge densities.

  Evaluating partitioned Hartree potential by multipole expansion.
  | Analytical far-field extrapolation by fixed multipoles:
  | Hartree multipole sum: apparent total charge =   0.421272E-05
  Summing up the Hartree potential.
  Time summed over all CPUs for potential: real work        0.033 s, elapsed        0.034 s
  | RMS charge density error from multipole expansion :   0.468845E-02

  Integrating Hamiltonian matrix: batch-based integration.
  Time summed over all CPUs for integration: real work        0.070 s, elapsed        0.075 s

  Updating Kohn-Sham eigenvalues, eigenvectors, occupation numbers, and Fermi level.
  Solving generalized eigenproblem
  Solving real symmetric generalised eigenvalue problem by standard ScaLAPACK.
  Using Cholesky factor for transformation
  Using 1-stage real ELPA solver
  Solving real symmetric generalised eigenvalue problem by standard ScaLAPACK.
  Using Cholesky factor for transformation
  Using 1-stage real ELPA solver
  Determining occupation numbers for Kohn-Sham eigenstates.
  | Chemical potential (Fermi level) in eV                 : -.11650943E+02
  | Error in electron count due to remaining E_F inaccuracy: 0.00000000E+00
  | Maximum occupation number of highest empty state:  0.00E+00

  Current spin moment of the entire structure :
  | N = N_up - N_down :    0.00
  | S                 :    0.00
  | J                 :    1.00

  Highest occupied state (VBM) at    -13.44878323 eV
  | Occupation number:      1.00000000
  | Spin channel:        1

  Lowest unoccupied state (CBM) at     1.21732238 eV
  | Occupation number:      0.00000000
  | Spin channel:        1

  Overall HOMO-LUMO gap:     14.66610561 eV.

  Total energy components:
  | Sum of eigenvalues            :          -0.98846744 Ha         -26.89756754 eV
  | XC energy correction          :          -0.89366953 Ha         -24.31798530 eV
  | XC potential correction       :           1.14602550 Ha          31.18494059 eV
  | Free-atom electrostatic energy:           0.68455756 Ha          18.62775908 eV
  | Hartree energy correction     :          -0.59196257 Ha         -16.10812101 eV
  | van der Waals energy corr.    :           0.00000000 Ha           0.00000000 eV
  | Entropy correction            :           0.00000000 Ha           0.00000000 eV
  | ---------------------------
  | Total energy                  :          -0.64351647 Ha         -17.51097419 eV
  | Total energy, T -> 0          :          -0.64351647 Ha         -17.51097419 eV  <-- do not rely on this value for anything but (periodic) metals
  | Electronic free energy        :          -0.64351647 Ha         -17.51097419 eV

  Derived energy quantities:
  | Kinetic energy                :           1.92374046 Ha          52.34764135 eV
  | Electrostatic energy          :          -1.67358740 Ha         -45.54063023 eV
  | Energy correction for multipole
  | error in Hartree potential    :           0.00038140 Ha           0.01037844 eV
  | Sum of eigenvalues per atom                           :         -13.44878377 eV
  | Total energy (T->0) per atom                          :          -8.75548709 eV  <-- do not rely on this value for anything but (periodic) metals
  | Electronic free energy per atom                       :          -8.75548709 eV

  Self-consistency convergence accuracy:
  | Change of charge/spin density : 0.1716E-05 0.1966E-05
  | Change of sum of eigenvalues  : 0.2209E-04 eV
  | Change of total energy        : -.3908E-07 eV

  End self-consistency iteration #    28       :  max(cpu_time)    wall_clock(cpu1)
  | Time for this iteration                    :        0.026 s           0.026 s
  | Charge density update                      :        0.006 s           0.006 s
  | Density mixing                             :        0.002 s           0.002 s
  | Hartree multipole update                   :        0.001 s           0.001 s
  | Hartree multipole summation                :        0.005 s           0.005 s
  | Integration                                :        0.009 s           0.009 s
  | Solution of K.-S. eqns.                    :        0.001 s           0.002 s
  | Total energy evaluation                    :        0.000 s           0.001 s
------------------------------------------------------------

------------------------------------------------------------
          Begin self-consistency iteration #   29

  Date     :  20220120, Time     :  153005.270
------------------------------------------------------------
  Evaluating new KS density.
  Integration grid: deviation in total charge (<rho> - N_e) =  -7.918111E-13
  | <rho_up-rho_dn> = N_up-N_dn =      0.0000; <|rho_up-rho_dn|> =      0.0000
  Pulay mixing of updated and previous charge densities.

  Evaluating partitioned Hartree potential by multipole expansion.
  | Analytical far-field extrapolation by fixed multipoles:
  | Hartree multipole sum: apparent total charge =   0.421308E-05
  Summing up the Hartree potential.
  Time summed over all CPUs for potential: real work        0.032 s, elapsed        0.033 s
  | RMS charge density error from multipole expansion :   0.468846E-02

  Integrating Hamiltonian matrix: batch-based integration.
  Time summed over all CPUs for integration: real work        0.073 s, elapsed        0.077 s

  Updating Kohn-Sham eigenvalues, eigenvectors, occupation numbers, and Fermi level.
  Solving generalized eigenproblem
  Solving real symmetric generalised eigenvalue problem by standard ScaLAPACK.
  Using Cholesky factor for transformation
  Using 1-stage real ELPA solver
  Solving real symmetric generalised eigenvalue problem by standard ScaLAPACK.
  Using Cholesky factor for transformation
  Using 1-stage real ELPA solver
  Determining occupation numbers for Kohn-Sham eigenstates.
  | Chemical potential (Fermi level) in eV                 : -.11651143E+02
  | Error in electron count due to remaining E_F inaccuracy: 0.00000000E+00
  | Maximum occupation number of highest empty state:  0.00E+00

  Current spin moment of the entire structure :
  | N = N_up - N_down :    0.00
  | S                 :    0.00
  | J                 :    1.00

  Highest occupied state (VBM) at    -13.44878340 eV
  | Occupation number:      1.00000000
  | Spin channel:        2

  Lowest unoccupied state (CBM) at     1.21754231 eV
  | Occupation number:      0.00000000
  | Spin channel:        1

  Overall HOMO-LUMO gap:     14.66632570 eV.

  Total energy components:
  | Sum of eigenvalues            :          -0.98846743 Ha         -26.89756737 eV
  | XC energy correction          :          -0.89366952 Ha         -24.31798486 eV
  | XC potential correction       :           1.14602548 Ha          31.18494009 eV
  | Free-atom electrostatic energy:           0.68455756 Ha          18.62775908 eV
  | Hartree energy correction     :          -0.59196257 Ha         -16.10812113 eV
  | van der Waals energy corr.    :           0.00000000 Ha           0.00000000 eV
  | Entropy correction            :           0.00000000 Ha           0.00000000 eV
  | ---------------------------
  | Total energy                  :          -0.64351647 Ha         -17.51097419 eV
  | Total energy, T -> 0          :          -0.64351647 Ha         -17.51097419 eV  <-- do not rely on this value for anything but (periodic) metals
  | Electronic free energy        :          -0.64351647 Ha         -17.51097419 eV

  Derived energy quantities:
  | Kinetic energy                :           1.92374017 Ha          52.34763335 eV
  | Electrostatic energy          :          -1.67358712 Ha         -45.54062268 eV
  | Energy correction for multipole
  | error in Hartree potential    :           0.00038140 Ha           0.01037846 eV
  | Sum of eigenvalues per atom                           :         -13.44878369 eV
  | Total energy (T->0) per atom                          :          -8.75548709 eV  <-- do not rely on this value for anything but (periodic) metals
  | Electronic free energy per atom                       :          -8.75548709 eV

  Self-consistency convergence accuracy:
  | Change of charge/spin density : 0.3224E-06 0.2389E-06
  | Change of sum of eigenvalues  : 0.1684E-06 eV
  | Change of total energy        : -.7871E-09 eV

  Writing Kohn-Sham eigenvalues.

  Spin-up eigenvalues:

  State    Occupation    Eigenvalue [Ha]    Eigenvalue [eV]
      1       1.00000          -0.494234          -13.44878
      2       0.00000           0.044744            1.21754
      3       0.00000           0.057597            1.56730
      4       0.00000           0.239896            6.52791
      5       0.00000           0.338952            9.22336
      6       0.00000           0.372145           10.12658
      7       0.00000           0.372145           10.12658
      8       0.00000           0.724828           19.72357
      9       0.00000           0.724828           19.72357
     10       0.00000           0.819614           22.30283
     11       0.00000           0.827018           22.50431

  Spin-down eigenvalues:

  State    Occupation    Eigenvalue [Ha]    Eigenvalue [eV]
      1       1.00000          -0.494234          -13.44878
      2       0.00000           0.044761            1.21800
      3       0.00000           0.057638            1.56840
      4       0.00000           0.239924            6.52866
      5       0.00000           0.338981            9.22415
      6       0.00000           0.372145           10.12657
      7       0.00000           0.372145           10.12657
      8       0.00000           0.724827           19.72356
      9       0.00000           0.724827           19.72356
     10       0.00000           0.819609           22.30270
     11       0.00000           0.827019           22.50432

  Current spin moment of the entire structure :
  | N = N_up - N_down :    0.00
  | S                 :    0.00
  | J                 :    1.00

  Highest occupied state (VBM) at    -13.44878340 eV
  | Occupation number:      1.00000000
  | Spin channel:        2

  Lowest unoccupied state (CBM) at     1.21754231 eV
  | Occupation number:      0.00000000
  | Spin channel:        1

  Overall HOMO-LUMO gap:     14.66632570 eV.

  Self-consistency cycle converged.

  End self-consistency iteration #    29       :  max(cpu_time)    wall_clock(cpu1)
  | Time for this iteration                    :        0.026 s           0.027 s
  | Charge density update                      :        0.007 s           0.006 s
  | Density mixing                             :        0.002 s           0.002 s
  | Hartree multipole update                   :        0.001 s           0.001 s
  | Hartree multipole summation                :        0.004 s           0.005 s
  | Integration                                :        0.010 s           0.009 s
  | Solution of K.-S. eqns.                    :        0.002 s           0.002 s
  | Total energy evaluation                    :        0.000 s           0.001 s
------------------------------------------------------------
  Obtaining max. number of non-zero basis functions in each batch .
  Evaluating KS electron density on previously omitted grid points.
  Evaluating non-empirical van der Waals correction (Tkatchenko/Scheffler 2009).
  Performing Hirshfeld analysis of fragment charges and moments.
  ----------------------------------------------------------------------
  | Atom     1: H
  |   Hirshfeld charge        :     -0.00000219
  |   Free atom volume        :     10.31539447
  |   Hirshfeld volume        :      3.15018151
  |   Hirshfeld spin moment   :     -0.00000087
  |   Hirshfeld dipole vector :     -0.00000000       0.00000000      -0.04527131
  |   Hirshfeld dipole moment :      0.04527131
  |   Hirshfeld second moments:      0.19135841       0.00000000      -0.00000000
  |                                  0.00000000       0.19135841       0.00000000
  |                                 -0.00000000       0.00000000       0.18364982
  ----------------------------------------------------------------------
  | Atom     2: H
  |   Hirshfeld charge        :     -0.00000219
  |   Free atom volume        :     10.31539447
  |   Hirshfeld volume        :      3.15018151
  |   Hirshfeld spin moment   :     -0.00000087
  |   Hirshfeld dipole vector :     -0.00000000       0.00000000       0.04527131
  |   Hirshfeld dipole moment :      0.04527131
  |   Hirshfeld second moments:      0.19135841       0.00000000      -0.00000000
  |                                  0.00000000       0.19135841       0.00000000
  |                                 -0.00000000       0.00000000       0.18364982
  ----------------------------------------------------------------------


  Total energy components:
  | Sum of eigenvalues            :          -0.98846743 Ha         -26.89756737 eV
  | XC energy correction          :          -0.89366952 Ha         -24.31798486 eV
  | XC potential correction       :           1.14602548 Ha          31.18494009 eV
  | Free-atom electrostatic energy:           0.68455756 Ha          18.62775908 eV
  | Hartree energy correction     :          -0.59196257 Ha         -16.10812113 eV
  | van der Waals energy corr.    :          -0.00000075 Ha          -0.00002049 eV
  | Entropy correction            :           0.00000000 Ha           0.00000000 eV
  | ---------------------------
  | Total energy                  :          -0.64351723 Ha         -17.51099468 eV
  | Total energy, T -> 0          :          -0.64351723 Ha         -17.51099468 eV  <-- do not rely on this value for anything but (periodic) metals
  | Electronic free energy        :          -0.64351723 Ha         -17.51099468 eV

  Derived energy quantities:
  | Kinetic energy                :           1.92374017 Ha          52.34763335 eV
  | Electrostatic energy          :          -1.67358712 Ha         -45.54062268 eV
  | Energy correction for multipole
  | error in Hartree potential    :           0.00038140 Ha           0.01037846 eV
  | Sum of eigenvalues per atom                           :         -13.44878369 eV
  | Total energy (T->0) per atom                          :          -8.75549734 eV  <-- do not rely on this value for anything but (periodic) metals
  | Electronic free energy per atom                       :          -8.75549734 eV
  Timings for VdW correction (Tkatchenko-Scheffler 2009 or later):
  | CPU time:        0.003 s, Wall clock time:        0.003 s.

  Energy and forces in a compact form:
  | Total energy uncorrected      :         -0.175109946763518E+02 eV
  | Total energy corrected        :         -0.175109946763518E+02 eV  <-- do not rely on this value for anything but (periodic) metals
  | Electronic free energy        :         -0.175109946763518E+02 eV

  ------------------------------------ 
  Start decomposition of the XC Energy 
  ------------------------------------ 
  Hartree-Fock part   :          0.000000000 Ha              0.000000000 eV
  ------------------------------------ 
  X Energy            :         -0.849968485 Ha            -23.128819249 eV
  C Energy GGA        :         -0.043701033 Ha             -1.189165609 eV
  Total XC Energy     :         -0.893669518 Ha            -24.317984858 eV
  LDA X and C from self-consistent density 
  X Energy LDA        :         -0.743898541 Ha            -20.242509226 eV
  C Energy LDA        :         -0.105214964 Ha             -2.863044834 eV
  ------------------------------------ 
  End decomposition of the XC Energy 
  ------------------------------------ 

------------------------------------------------------------------------------
  Final output of selected total energy values:

  The following output summarizes some interesting total energy values
  at the end of a run (AFTER all relaxation, molecular dynamics, etc.).

  | Total energy of the DFT / Hartree-Fock s.c.f. calculation      :            -17.510994676 eV
  | Final zero-broadening corrected energy (caution - metals only) :            -17.510994676 eV
  | For reference only, the value of 1 Hartree used in FHI-aims is :             27.211384500 eV

  Before relying on these values, please be sure to understand exactly which
  total energy value is referred to by a given number. Different objects may
  all carry the same name 'total energy'. Definitions:

  Total energy of the DFT / Hartree-Fock s.c.f. calculation:
  | Note that this energy does not include ANY quantities calculated after the
  | s.c.f. cycle, in particular not ANY RPA, MP2, etc. many-body perturbation terms.

  Final zero-broadening corrected energy:
  | For metallic systems only, a broadening of the occupation numbers at the Fermi
  | level can be extrapolated back to zero broadening by an electron-gas inspired
  | formula. For all systems that are not real metals, this value can be
  | meaningless and should be avoided.

------------------------------------------------------------------------------

------------------------------------------------------------
          Leaving FHI-aims.
          Date     :  20220120, Time     :  153005.307

          Computational steps:
          | Number of self-consistency cycles          :           29

          Detailed time accounting                     :  max(cpu_time)    wall_clock(cpu1)
          | Total time                                 :        0.968 s           1.064 s
          | Preparation time                           :        0.077 s           0.078 s
          | Grid partitioning                          :        0.007 s           0.007 s
          | Preloading free-atom quantities on grid    :        0.004 s           0.003 s
          | Free-atom superposition energy             :        0.002 s           0.003 s
          | Total time for integrations                :        0.296 s           0.296 s
          | Total time for solution of K.-S. equations :        0.052 s           0.058 s
          | Total time for density update              :        0.197 s           0.177 s
          | Total time for mixing                      :        0.049 s           0.048 s
          | Total time for Hartree multipole update    :        0.040 s           0.039 s
          | Total time for Hartree multipole sum       :        0.140 s           0.144 s
          | Total time for total energy evaluation     :        0.005 s           0.019 s
          | Total time for scaled ZORA corrections     :        0.000 s           0.000 s
          | Total time for vdW correction              :        0.003 s           0.003 s

          Have a nice day.
------------------------------------------------------------
