  MPI-parallelism will be employed.
------------------------------------------------------------
          Invoking FHI-aims ...
          Version 052014
          Git rev. (modified): 096c982 Merge branch master of fhiaims:/pub/localo[...]
          Compiled on 2016/12/16 at 15:22:01 on host login02.hpc.iitd.ac.in.

          When using FHI-aims, please cite the following reference:

          Volker Blum, Ralf Gehrke, Felix Hanke, Paula Havu,
          Ville Havu, Xinguo Ren, Karsten Reuter, and Matthias Scheffler,
          'Ab Initio Molecular Simulations with Numeric Atom-Centered Orbitals: FHI-aims',
          Computer Physics Communications 180, 2175-2196 (2009)

          For any questions about FHI-aims, please visit the aimsclub website
          with its forums and wiki. Contributions to both the forums and the
          wiki are warmly encouraged - they are for you, and everyone is welcome there.

------------------------------------------------------------

  Date     :  20220120, Time     :  153759.343
  Time zero on CPU 1             :   0.120750000000000E-01  s.
  Internal wall clock time zero  :           411925079.343  s.

  Using        8 parallel tasks.
  Task        0 on host csky010 reporting.
  Task        1 on host csky010 reporting.
  Task        2 on host csky010 reporting.
  Task        3 on host csky010 reporting.
  Task        4 on host csky010 reporting.
  Task        5 on host csky010 reporting.
  Task        6 on host csky010 reporting.
  Task        7 on host csky010 reporting.

  Performing system and environment tests:
  | Environment variable OMP_NUM_THREADS correctly set to 1.
  | Stacksize not measured: no C compiler
  | Checking for scalapack...
  | Testing pdtran()...
  | All pdtran() tests passed.

  Obtaining array dimensions for all initial allocations:
  
  -----------------------------------------------------------------------
  Parsing control.in (first pass over file, find array dimensions only).
  The contents of control.in will be repeated verbatim below
  unless switched off by setting 'verbatim_writeout .false.' .
  in the first line of control.in .
  -----------------------------------------------------------------------
  
    xc               pbe
    spin             collinear
    default_initial_moment hund
    relativistic     atomic_zora scalar 1e-9
    occupation_type  gaussian 0.001
    charge        0
    vdw_correction_hirshfeld
    KS_method        scalapack_fast
    mixer            pulay
    charge_mix_param  0.4
    spin_mix_param    0.6
    sc_accuracy_rho  1E-4
    sc_accuracy_eev  1E-5
    sc_accuracy_etot 1E-5
    sc_iter_limit    100
    empty_states     10
  ################################################################################
  #
  #  FHI-aims code project
  # Volker Blum, Fritz Haber Institute Berlin, 2009
  #
  #  Suggested "tight" defaults for H atom (to be pasted into control.in file)
  #
  ################################################################################
    species        H
  #     global species definitions
      nucleus             1
      mass                1.00794
  #
      l_hartree           6
  #
      cut_pot             4.0  2.0  1.0
      basis_dep_cutoff    1e-4
  #
      radial_base         24 7.0
      radial_multiplier   2
      angular_grids       specified
        division   0.1930   50
        division   0.3175  110
        division   0.4293  194
        division   0.5066  302
        division   0.5626  434
  #      division   0.5922  590
  #      division   0.6227  974
  #      division   0.6868 1202
  #      outer_grid  770
        outer_grid  434
  ################################################################################
  #
  #  Definition of "minimal" basis
  #
  ################################################################################
  #     valence basis states
      valence      1  s   1.
  #     ion occupancy
      ion_occ      1  s   0.5
  ################################################################################
  #
  #  Suggested additional basis functions. For production calculations,
  #  uncomment them one after another (the most important basis functions are
  #  listed first).
  #
  #  Basis constructed for dimers: 0.5 A, 0.7 A, 1.0 A, 1.5 A, 2.5 A
  #
  ################################################################################
  #  "First tier" - improvements: -1014.90 meV to -62.69 meV
       hydro 2 s 2.1
       hydro 2 p 3.5
  #  "Second tier" - improvements: -12.89 meV to -1.83 meV
       hydro 1 s 0.85
       hydro 2 p 3.7
       hydro 2 s 1.2
       hydro 3 d 7
  #  "Third tier" - improvements: -0.25 meV to -0.12 meV
  #     hydro 4 f 11.2
  #     hydro 3 p 4.8
  #     hydro 4 d 9
  #     hydro 3 s 3.2
  ################################################################################
  #
  # For methods that use the localized form of the "resolution of identity" for
  # the two-electron Coulomb operator (RI_method LVL), particularly Hartree-Fock and
  # hybrid density functional calculations, the highest accuracy can be obtained by
  # uncommenting the line beginning with "for_aux"  below, thus adding an extra g radial
  # function to the construction of the product basis set for the expansion.
  # See Ref. New J. Phys. 17, 093020 (2015) for more information, particularly Figs. 1 and 6.
  #
  ################################################################################
  #
  # for_aux hydro 5 g 6.0
  
  -----------------------------------------------------------------------
  Completed first pass over input file control.in .
  -----------------------------------------------------------------------
  
  
  -----------------------------------------------------------------------
  Parsing geometry.in (first pass over file, find array dimensions only).
  The contents of geometry.in will be repeated verbatim below
  unless switched off by setting 'verbatim_writeout .false.' .
  in the first line of geometry.in .
  -----------------------------------------------------------------------
  
  atom 0 0 0 H
  atom 0 0 0.76 H
  
  -----------------------------------------------------------------------
  Completed first pass over input file geometry.in .
  -----------------------------------------------------------------------
  

  Basic array size parameters:
  | Number of species                 :        1
  | Number of atoms                   :        2
  | Max. basis fn. angular momentum   :        2
  | Max. atomic/ionic basis occupied n:        1
  | Max. number of basis fn. types    :        2
  | Max. radial fns per species/type  :        6
  | Max. logarithmic grid size        :     1131
  | Max. radial integration grid size :       49
  | Max. angular integration grid size:      434
  | Max. angular grid division number :        8
  | Radial grid for Hartree potential :     1131
  | Number of spin channels           :        2

------------------------------------------------------------
          Reading file control.in.
------------------------------------------------------------
  XC: Using PBE gradient-corrected functionals.
  Spin treatment: Spin density functional theory - collinear spins.
  Initial spin moment per atom set according to Hund's rules.
  Scalar relativistic treatment of kinetic energy: on-site free-atom approximation to ZORA.
  Occupation type: Gaussian broadening, width =   0.100000E-02 eV.
  Charge =   0.000000E+00: Neutral system requested explicitly.
  Using non-empirical van der Waals correction (Hirshfeld partitioning):
  Kohn-Sham eigenvalues and eigenfunctions calculated by the ELPA eigensolver library.
  Using pulay charge density mixing.
  Charge density mixing - mixing parameter:     0.4000
  Spin density mixing - mixing parameter:     0.6000
  Convergence accuracy of self-consistent charge density: 0.1000E-03
  Convergence accuracy of sum of eigenvalues: 0.1000E-04
  Convergence accuracy of total energy: 0.1000E-04
  Maximum number of s.-c. iterations  :   100
  Number of empty states per atom:       10
 
  Reading configuration options for species H                   .
  | Found nuclear charge :   1.0000
  | Found atomic mass :    1.00794000000000      amu
  | Found l_max for Hartree potential  :   6
  | Found cutoff potl. onset [A], width [A], scale factor :    4.00000    2.00000    1.00000
  | Threshold for basis-dependent cutoff potential is   0.100000E-03
  | Found data for basic radial integration grid :    24 points, outermost radius =    7.000 A
  | Found multiplier for basic radial grid :   2
  | Found angular grid specification: user-specified.
  | Specified grid contains     6 separate shells.
  | Check grid settings after all constraints further below.
  | Found free-atom valence shell :  1 s   1.000
  | No ionic wave fns used. Skipping ion_occ.
  | Found hydrogenic basis function :  2 s   2.100
  | Found hydrogenic basis function :  2 p   3.500
  | Found hydrogenic basis function :  1 s   0.850
  | Found hydrogenic basis function :  2 p   3.700
  | Found hydrogenic basis function :  2 s   1.200
  | Found hydrogenic basis function :  3 d   7.000
  Species H                   : Missing cutoff potential type.
  Defaulting to exp(1/x)/(1-x)^2 type cutoff potential.
  Species H : No 'logarithmic' tag. Using default grid for free atom:
  | Default logarithmic grid data [bohr] : 0.1000E-03 0.1000E+03 0.1012E+01
  Species H : On-site basis accuracy parameter (for Gram-Schmidt orthonormalisation) not specified.
  Using default value basis_acc =  0.1000000E-03.
  Species H                   : Using default innermost maximum threshold i_radial=  2 for radial functions.
  Species H                   : Default cutoff onset for free atom density etc. : 0.40000000E+01 AA.
  Species H                   : Basic radial grid will be enhanced according to radial_multiplier =   2, to contain    49 grid points.
 
  Finished reading input file 'control.in'. Consistency checks are next.
 
  Target number of points in a grid batch is not set. Defaulting to  100
  Method for grid partitioning is not set. Defaulting to parallel hash+maxmin partitioning.
  Batch size limit is not set. Defaulting to    200
  By default, will store active basis functions for each batch.
  If in need of memory, prune_basis_once .false. can be used to disable this option.
  communication_type for Hartree potential was not specified.
  Defaulting to calc_hartree .
  Pulay mixer: Number of relevant iterations not set.
  Defaulting to    8 iterations.
  Pulay mixer: Number of initial linear mixing iterations not set.
  Defaulting to    0 iterations.
  Work space size for distributed Hartree potential not set.
  Defaulting to   0.200000E+03 MB.
  Algorithm-dependent basis array size parameters:
  | n_max_pulay                         :        8
  Calculation of forces was not defined in control.in. No forces will be calculated.
  Geometry relaxation not requested: no relaxation will be performed.
  No accuracy limit for integral partition fn. given. Defaulting to 0.1000E-14.
  No threshold value for u(r) in integrations given. Defaulting to 0.1000E-05.
  No accuracy for occupation numbers given. Defaulting to 0.1000E-07.
  No threshold value for occupation numbers given. Defaulting to 0.0000E+00.
  No accuracy for fermi level given. Defaulting to 0.1000E-19.
  Maximum # of iterations to find E_F not set. Defaulting to  200.
  Will not use alltoall communication since running on < 1024 CPUs.
  Threshold for basis singularities not set.
  Default threshold for basis singularities: 0.1000E-04
  partition_type (choice of integration weights) for integrals was not specified.
  | Using a version of the partition function of Stratmann and coworkers ('stratmann_smoother').
  | At each grid point, the set of atoms used to build the partition table is smoothly restricted to
  | only those atoms whose free-atom density would be non-zero at that grid point.
  Partitioning for Hartree potential was not defined. Using partition_type for integrals.
  | Adjusted default value of keyword multip_moments_threshold to:       0.10000000E-11
  | This value may affect high angular momentum components of the Hartree potential in periodic systems.
  No q(lm)/r^(l+1) cutoff set for long-range Hartree potential.
  | Using default value of  0.100000E-09 .
  | Verify using the multipole_threshold keyword.
  Defaulting to new monopole extrapolation.
  Density update method: automatic selection selected.
------------------------------------------------------------


------------------------------------------------------------
          Reading geometry description geometry.in.
------------------------------------------------------------
  Input structure read successfully.
  The structure contains        2 atoms,  and a total of          2.000 electrons.

  Input geometry:
  | No unit cell requested.
  | Atomic structure:
  |       Atom                x [A]            y [A]            z [A]
  |    1: Species H              0.000000         0.000000         0.000000
  |    2: Species H              0.000000         0.000000         0.760000
  |

  | The smallest distance between any two atoms is         0.76000000 AA.
  |
  | The first atom of this pair is atom number                      1 .
  | The second atom of this pair is atom number                     2 .

  Initial moments and charges:
  |  Atom   Moment         Charge        Species
  |     1  (Hund's rule)   0.000000E+00   H
  |     2  (Hund's rule)   0.000000E+00   H

  Structure-dependent array size parameters: 
  | Number of distinct atom types in initial rho :        1
  | Maximum number of distinct radial functions  :        7
  | Maximum number of basis functions            :       30
  | Number of Kohn-Sham states (occupied + empty):       11
------------------------------------------------------------

------------------------------------------------------------
          Preparing all fixed parts of the calculation.
------------------------------------------------------------
  Determining machine precision:
    2.225073858507201E-308
  Setting up grids for atomic and cluster calculations.

  Creating wave function, potential, and density for free atoms.

  Species: H

  List of occupied orbitals and eigenvalues:
    n    l              occ      energy [Ha]    energy [eV]
    1    0           1.0000        -0.238386        -6.4868

  Spin-polarized or charged system:
  Charge density initialized according to selected moments and charges.

  Creating spin-polarized density from free atoms.

  Species: H
  Charge:   0.000000
  applying Hund's rules ...

  List of occupied orbitals and eigenvalues:
    n    l      energy [Ha]    energy [eV]    occupation
  Spin-up
    1    0        -0.278991        -7.5917     1.00000000
  Spin-down
    1    0         0.090850         2.4721     0.00000000

  Creating fixed part of basis set: Ionic, confined, hydrogenic.
 
  H                    hydrogenic:
 
  List of hydrogenic basis orbitals: 
    n    l      effective z      eigenvalue [eV]  inner max. [A]     outer max. [A]     outer radius [A]   
    2    0         2.100000       -14.9965           0.193243           1.317208           5.373006
    2    1         3.500000       -41.6672           0.602369           0.602369           4.056063
    1    0         0.850000        -9.8292           0.624871           0.624871           5.373006
    2    1         3.700000       -46.5653           0.573622           0.573622           3.910002
    2    0         1.200000        -4.5995           0.334980           2.228188           5.505995
    3    2         7.000000       -74.0753           0.680699           0.680699           3.769201
 

  Adding cutoff potential to free-atom effective potential.
  Creating atomic-like basis functions for current effective potential.

  Species H                   :

  List of atomic basis orbitals and eigenvalues:
    n    l      energy [Ha]    energy [eV]    outer radius [A]
    1    0        -0.238386        -6.4868       5.373006

  Assembling full basis from fixed parts.
  | Species H :   atomic orbital   1 s accepted.
  | Species H :    hydro orbital   2 s accepted.
  | Species H :    hydro orbital   1 s accepted.
  | Species H :    hydro orbital   2 s accepted.
  | Species H :    hydro orbital   2 p accepted.
  | Species H :    hydro orbital   2 p accepted.
  | Species H :    hydro orbital   3 d accepted.
 
  Basis size parameters after reduction:
  | Total number of radial functions:        7
  | Total number of basis functions :       30
 
  Testing on-site integration grid accuracy.
  |  Species  Function  <phi|h_atom|phi> (log., in eV)  <phi|h_atom|phi> (rad., in eV)
           1        1                 -6.4870767962                 -6.4871688290
           1        2                 13.5032046589                 13.5028982997
           1        3                 32.8195184817                 32.8119941656
           1        4                 33.8513856511                 33.7670005767 ***
           1        5                 28.8544614965                 28.8544615203
           1        6                 59.6326952547                 59.6327656460
           1        7                 60.2719308513                 60.2719305949
 * Note: Onsite integrals marked "***" above are less accurate than
 * onsite_accuracy_threshold =    0.03000 eV. Usually, this is harmless.
 * When in doubt, tighten the "radial" and/or "radial_multiplier" flags to check.

  Preparing densities etc. for the partition functions (integrals / Hartree potential).

  Preparations completed.
  max(cpu_time)          :      0.079 s.
  Wall clock time (cpu1) :      0.079 s.
------------------------------------------------------------

------------------------------------------------------------
          Begin self-consistency loop: Initialization.

          Date     :  20220120, Time     :  153759.509
------------------------------------------------------------

  Initializing index lists of integration centers etc. from given atomic structure:
  | Number of centers in hartree potential         :         2
  | Number of centers in hartree multipole         :         2
  | Number of centers in electron density summation:         2
  | Number of centers in basis integrals           :         2
  | Number of centers in integrals                 :         2
  Using modified Scalapack Eigenvalue solver (ELPA)
  * Using 8 tasks for Scalapack Eigenvalue solver.
  Detailed listing of tasks and assigned k-points:
  (for non-periodic systems, the "k-point" denotes an internal label only)
   Task     0 k-point     1 on csky010
   Task     1 k-point     1 on csky010
   Task     2 k-point     1 on csky010
   Task     3 k-point     1 on csky010
   Task     4 k-point     1 on csky010
   Task     5 k-point     1 on csky010
   Task     6 k-point     1 on csky010
   Task     7 k-point     1 on csky010
  Tasks:     8 split into      4 X      2 BLACS grid
  Calculating blocksize based on n_basis =           30 max_nprow =            4 max_npcol =            2
  Scalapack blocksize set to:            4
  Required Scalapack workspace - INTEGER:            1 REAL:             1
  Partitioning the integration grid into batches with parallel hashing+maxmin method.
  | Number of batches:      442
  | Maximal batch size:     197
  | Minimal batch size:      48
  | Average batch size:      65.385
  | Standard deviation of batch sizes:      18.877

  Integration load balanced across     8 MPI tasks.
  Work distribution over tasks is as follows:
  Task     0 has       3643 integration points.
  Task     1 has       3580 integration points.
  Task     2 has       3612 integration points.
  Task     3 has       3588 integration points.
  Task     4 has       3681 integration points.
  Task     5 has       3626 integration points.
  Task     6 has       3588 integration points.
  Task     7 has       3582 integration points.
  Initializing partition tables, free-atom densities, potentials, etc. across the integration grid (initialize_grid_storage).
  | initialize_grid_storage: Actual outermost partition radius vs. multipole_radius_free
  | (-- VB: in principle, multipole_radius_free should be larger, hence this output)
  | Species        1: outer_partition_radius =              6.000000000000000 AA, multipole_radius_free =              6.071692442739658 AA.
  | Original list of interatomic distances with           2 x          2 entries is created.
  | Net number of integration points:    28900
  | of which are non-zero points    :    26604
  Obtaining max. number of non-zero basis functions in each batch (get_n_compute_maxes).
  | Maximal number of non-zero basis functions:       30 in task     0
  | Maximal number of non-zero basis functions:       30 in task     1
  | Maximal number of non-zero basis functions:       30 in task     2
  | Maximal number of non-zero basis functions:       30 in task     3
  | Maximal number of non-zero basis functions:       30 in task     4
  | Maximal number of non-zero basis functions:       30 in task     5
  | Maximal number of non-zero basis functions:       30 in task     6
  | Maximal number of non-zero basis functions:       30 in task     7
  Selecting the method for density update.
  Loop over occupied states selected for charge density update.
  Integrating Hamiltonian matrix: batch-based integration.
  Time summed over all CPUs for integration: real work        0.088 s, elapsed        0.104 s
  Integrating overlap matrix.
  Time summed over all CPUs for integration: real work        0.022 s, elapsed        0.029 s
  Deallocating overlap matrix.

  Updating Kohn-Sham eigenvalues, eigenvectors, occupation numbers, and Fermi level.
  Solving generalized eigenproblem
  Solving real symmetric generalised eigenvalue problem by standard ScaLAPACK.
  Transforming overlap matrix with ScaLAPACK and checking for singularities.
  : Overlap matrix is nonsingular, using Cholesky decomposition
  | Lowest eigenvalue:  0.269328E-03
  Factoring overlap matrix with Cholesky decomposition
  Using Cholesky factor for transformation
  Using 1-stage real ELPA solver
  Solving real symmetric generalised eigenvalue problem by standard ScaLAPACK.
  Using Cholesky factor for transformation
  Using 1-stage real ELPA solver
  Determining occupation numbers for Kohn-Sham eigenstates.
  | Chemical potential (Fermi level) in eV                 : -.13685991E+01
  | Error in electron count due to remaining E_F inaccuracy: 0.00000000E+00
  | Maximum occupation number of highest empty state:  0.00E+00

  Writing Kohn-Sham eigenvalues.

  Spin-up eigenvalues:

  State    Occupation    Eigenvalue [Ha]    Eigenvalue [eV]
      1       1.00000          -0.580128          -15.78608
      2       1.00000          -0.058508           -1.59207
      3       0.00000           0.009712            0.26427
      4       0.00000           0.104774            2.85103
      5       0.00000           0.211238            5.74809
      6       0.00000           0.211238            5.74809
      7       0.00000           0.301541            8.20534
      8       0.00000           0.457558           12.45080
      9       0.00000           0.653549           17.78397
     10       0.00000           0.671703           18.27798
     11       0.00000           0.671703           18.27798

  Spin-down eigenvalues:

  State    Occupation    Eigenvalue [Ha]    Eigenvalue [eV]
      1       0.00000           0.099298            2.70203
      2       0.00000           0.116104            3.15934
      3       0.00000           0.504869           13.73818
      4       0.00000           0.537166           14.61703
      5       0.00000           1.148561           31.25395
      6       0.00000           1.148561           31.25395
      7       0.00000           1.231221           33.50324
      8       0.00000           1.525354           41.50700
      9       0.00000           1.525354           41.50700
     10       0.00000           1.567998           42.66738
     11       0.00000           1.668478           45.40161

  Current spin moment of the entire structure :
  | N = N_up - N_down :    2.00
  | S                 :    1.00
  | J                 :    3.00

  Highest occupied state (VBM) at     -1.59207163 eV
  | Occupation number:      1.00000000
  | Spin channel:        1

  Lowest unoccupied state (CBM) at     0.26427354 eV
  | Occupation number:      0.00000000
  | Spin channel:        1

  Overall HOMO-LUMO gap:      1.85634517 eV.
  Calculating total energy contributions from superposition of free atom densities.

  Total energy components:
  | Sum of eigenvalues            :          -0.63863538 Ha         -17.37815277 eV
  | XC energy correction          :          -0.68401913 Ha         -18.61310751 eV
  | XC potential correction       :           0.88244468 Ha          24.01254144 eV
  | Free-atom electrostatic energy:          -0.35631508 Ha          -9.69582653 eV
  | Hartree energy correction     :           0.00000000 Ha           0.00000000 eV
  | van der Waals energy corr.    :           0.00000000 Ha           0.00000000 eV
  | Entropy correction            :           0.00000000 Ha           0.00000000 eV
  | ---------------------------
  | Total energy                  :          -0.79652490 Ha         -21.67454538 eV
  | Total energy, T -> 0          :          -0.79652490 Ha         -21.67454538 eV  <-- do not rely on this value for anything but (periodic) metals
  | Electronic free energy        :          -0.79652490 Ha         -21.67454538 eV

  Derived energy quantities:
  | Kinetic energy                :           1.19011063 Ha          32.38455789 eV
  | Electrostatic energy          :          -1.30261640 Ha         -35.44599575 eV
  | Energy correction for multipole
  | error in Hartree potential    :           0.00000000 Ha           0.00000000 eV
  | Sum of eigenvalues per atom                           :          -8.68907639 eV
  | Total energy (T->0) per atom                          :         -10.83727269 eV  <-- do not rely on this value for anything but (periodic) metals
  | Electronic free energy per atom                       :         -10.83727269 eV
  Initialize hartree_potential_storage
  Max. number of atoms included in rho_multipole:            2

  End scf initialization - timings             :  max(cpu_time)    wall_clock(cpu1)
  | Time for scf. initialization               :        0.046 s           0.046 s
  | Boundary condition initialization          :        0.000 s           0.000 s
  | Integration                                :        0.017 s           0.017 s
  | Solution of K.-S. eqns.                    :        0.009 s           0.010 s
  | Grid partitioning                          :        0.007 s           0.007 s
  | Preloading free-atom quantities on grid    :        0.004 s           0.004 s
  | Free-atom superposition energy             :        0.003 s           0.003 s
  | Total energy evaluation                    :        0.000 s           0.001 s
------------------------------------------------------------

------------------------------------------------------------
          Begin self-consistency iteration #    1

  Date     :  20220120, Time     :  153759.556
------------------------------------------------------------
  Evaluating new KS density.
  Integration grid: deviation in total charge (<rho> - N_e) =   3.830778E-07
  | <rho_up-rho_dn> = N_up-N_dn =      2.0000; <|rho_up-rho_dn|> =      2.0904
  Pulay mixing of updated and previous charge densities.

  Evaluating partitioned Hartree potential by multipole expansion.
  | Analytical far-field extrapolation by fixed multipoles:
  | Hartree multipole sum: apparent total charge =  -0.916225E-05
  Summing up the Hartree potential.
  Time summed over all CPUs for potential: real work        0.033 s, elapsed        0.034 s
  | RMS charge density error from multipole expansion :   0.742839E-03

  Integrating Hamiltonian matrix: batch-based integration.
  Time summed over all CPUs for integration: real work        0.085 s, elapsed        0.095 s

  Updating Kohn-Sham eigenvalues, eigenvectors, occupation numbers, and Fermi level.
  Solving generalized eigenproblem
  Solving real symmetric generalised eigenvalue problem by standard ScaLAPACK.
  Using Cholesky factor for transformation
  Using 1-stage real ELPA solver
  Solving real symmetric generalised eigenvalue problem by standard ScaLAPACK.
  Using Cholesky factor for transformation
  Using 1-stage real ELPA solver
  Determining occupation numbers for Kohn-Sham eigenstates.
  | Chemical potential (Fermi level) in eV                 : -.52602424E+01
  | Error in electron count due to remaining E_F inaccuracy: 0.00000000E+00
  | Maximum occupation number of highest empty state:  0.00E+00

  Writing Kohn-Sham eigenvalues.

  Spin-up eigenvalues:

  State    Occupation    Eigenvalue [Ha]    Eigenvalue [eV]
      1       1.00000          -0.474179          -12.90305
      2       0.00000           0.064296            1.74958
      3       0.00000           0.067262            1.83029
      4       0.00000           0.175025            4.76267
      5       0.00000           0.252749            6.87766
      6       0.00000           0.252749            6.87766
      7       0.00000           0.365594            9.94832
      8       0.00000           0.556879           15.15344
      9       0.00000           0.766803           20.86576
     10       0.00000           0.766803           20.86576
     11       0.00000           0.830572           22.60100

  Spin-down eigenvalues:

  State    Occupation    Eigenvalue [Ha]    Eigenvalue [eV]
      1       1.00000          -0.254354           -6.92133
      2       0.00000           0.088705            2.41378
      3       0.00000           0.091277            2.48377
      4       0.00000           0.249796            6.79730
      5       0.00000           0.362393            9.86122
      6       0.00000           0.362393            9.86122
      7       0.00000           0.434963           11.83594
      8       0.00000           0.684162           18.61700
      9       0.00000           0.857310           23.32860
     10       0.00000           0.857310           23.32860
     11       0.00000           0.880597           23.96227

  Current spin moment of the entire structure :
  | N = N_up - N_down :    0.00
  | S                 :    0.00
  | J                 :    1.00

  Highest occupied state (VBM) at     -6.92133111 eV
  | Occupation number:      1.00000000
  | Spin channel:        2

  Lowest unoccupied state (CBM) at     1.74958260 eV
  | Occupation number:      0.00000000
  | Spin channel:        1

  Overall HOMO-LUMO gap:      8.67091371 eV.

  Total energy components:
  | Sum of eigenvalues            :          -0.72853277 Ha         -19.82438542 eV
  | XC energy correction          :          -0.47730491 Ha         -12.98812730 eV
  | XC potential correction       :           0.61541755 Ha          16.74636352 eV
  | Free-atom electrostatic energy:          -0.35631508 Ha          -9.69582653 eV
  | Hartree energy correction     :           0.00852691 Ha           0.23202905 eV
  | van der Waals energy corr.    :           0.00000000 Ha           0.00000000 eV
  | Entropy correction            :           0.00000000 Ha           0.00000000 eV
  | ---------------------------
  | Total energy                  :          -0.93820830 Ha         -25.52994668 eV
  | Total energy, T -> 0          :          -0.93820830 Ha         -25.52994668 eV  <-- do not rely on this value for anything but (periodic) metals
  | Electronic free energy        :          -0.93820830 Ha         -25.52994668 eV

  Derived energy quantities:
  | Kinetic energy                :           0.89335966 Ha          24.30955312 eV
  | Electrostatic energy          :          -1.35426305 Ha         -36.85137249 eV
  | Energy correction for multipole
  | error in Hartree potential    :          -0.00016722 Ha          -0.00455018 eV
  | Sum of eigenvalues per atom                           :          -9.91219271 eV
  | Total energy (T->0) per atom                          :         -12.76497334 eV  <-- do not rely on this value for anything but (periodic) metals
  | Electronic free energy per atom                       :         -12.76497334 eV

  Self-consistency convergence accuracy:
  | Change of charge/spin density : 0.5113E-01 0.5113E-01
  | Change of sum of eigenvalues  : -.2446E+01 eV
  | Change of total energy        : -.3855E+01 eV

  End self-consistency iteration #     1       :  max(cpu_time)    wall_clock(cpu1)
  | Time for this iteration                    :        0.029 s           0.029 s
  | Charge density update                      :        0.007 s           0.006 s
  | Density mixing                             :        0.001 s           0.001 s
  | Hartree multipole update                   :        0.001 s           0.001 s
  | Hartree multipole summation                :        0.005 s           0.005 s
  | Integration                                :        0.012 s           0.012 s
  | Solution of K.-S. eqns.                    :        0.001 s           0.002 s
  | Total energy evaluation                    :        0.000 s           0.000 s
------------------------------------------------------------

------------------------------------------------------------
          Begin self-consistency iteration #    2

  Date     :  20220120, Time     :  153759.590
------------------------------------------------------------
  Evaluating new KS density.
  Integration grid: deviation in total charge (<rho> - N_e) =   2.298467E-07
  | <rho_up-rho_dn> = N_up-N_dn =     -2.0000; <|rho_up-rho_dn|> =      2.0000
  Pulay mixing of updated and previous charge densities.

  Evaluating partitioned Hartree potential by multipole expansion.
  | Analytical far-field extrapolation by fixed multipoles:
  | Hartree multipole sum: apparent total charge =  -0.905798E-05
  Summing up the Hartree potential.
  Time summed over all CPUs for potential: real work        0.033 s, elapsed        0.034 s
  | RMS charge density error from multipole expansion :   0.728694E-03

  Integrating Hamiltonian matrix: batch-based integration.
  Time summed over all CPUs for integration: real work        0.075 s, elapsed        0.081 s

  Updating Kohn-Sham eigenvalues, eigenvectors, occupation numbers, and Fermi level.
  Solving generalized eigenproblem
  Solving real symmetric generalised eigenvalue problem by standard ScaLAPACK.
  Using Cholesky factor for transformation
  Using 1-stage real ELPA solver
  Solving real symmetric generalised eigenvalue problem by standard ScaLAPACK.
  Using Cholesky factor for transformation
  Using 1-stage real ELPA solver
  Determining occupation numbers for Kohn-Sham eigenstates.
  | Chemical potential (Fermi level) in eV                 : -.70306925E+01
  | Error in electron count due to remaining E_F inaccuracy: 0.00000000E+00
  | Maximum occupation number of highest empty state:  0.00E+00

  Current spin moment of the entire structure :
  | N = N_up - N_down :    0.00
  | S                 :    0.00
  | J                 :    1.00

  Highest occupied state (VBM) at     -8.06162234 eV
  | Occupation number:      1.00000000
  | Spin channel:        2

  Lowest unoccupied state (CBM) at     1.10226497 eV
  | Occupation number:      0.00000000
  | Spin channel:        1

  Overall HOMO-LUMO gap:      9.16388731 eV.

  Total energy components:
  | Sum of eigenvalues            :          -0.84894855 Ha         -23.10106542 eV
  | XC energy correction          :          -0.56624062 Ha         -15.40819111 eV
  | XC potential correction       :           0.73157909 Ha          19.90727994 eV
  | Free-atom electrostatic energy:          -0.35631508 Ha          -9.69582653 eV
  | Hartree energy correction     :           0.00606771 Ha           0.16511091 eV
  | van der Waals energy corr.    :           0.00000000 Ha           0.00000000 eV
  | Entropy correction            :           0.00000000 Ha           0.00000000 eV
  | ---------------------------
  | Total energy                  :          -1.03385744 Ha         -28.13269222 eV
  | Total energy, T -> 0          :          -1.03385744 Ha         -28.13269222 eV  <-- do not rely on this value for anything but (periodic) metals
  | Electronic free energy        :          -1.03385744 Ha         -28.13269222 eV

  Derived energy quantities:
  | Kinetic energy                :           0.88925579 Ha          24.19788118 eV
  | Electrostatic energy          :          -1.35687261 Ha         -36.92238229 eV
  | Energy correction for multipole
  | error in Hartree potential    :          -0.00016452 Ha          -0.00447693 eV
  | Sum of eigenvalues per atom                           :         -11.55053271 eV
  | Total energy (T->0) per atom                          :         -14.06634611 eV  <-- do not rely on this value for anything but (periodic) metals
  | Electronic free energy per atom                       :         -14.06634611 eV

  Self-consistency convergence accuracy:
  | Change of charge/spin density : 0.1150E+00 0.2797E+00
  | Change of sum of eigenvalues  : -.3277E+01 eV
  | Change of total energy        : -.2603E+01 eV

  End self-consistency iteration #     2       :  max(cpu_time)    wall_clock(cpu1)
  | Time for this iteration                    :        0.027 s           0.026 s
  | Charge density update                      :        0.007 s           0.006 s
  | Density mixing                             :        0.001 s           0.001 s
  | Hartree multipole update                   :        0.001 s           0.001 s
  | Hartree multipole summation                :        0.005 s           0.005 s
  | Integration                                :        0.010 s           0.010 s
  | Solution of K.-S. eqns.                    :        0.001 s           0.002 s
  | Total energy evaluation                    :        0.000 s           0.001 s
------------------------------------------------------------

------------------------------------------------------------
          Begin self-consistency iteration #    3

  Date     :  20220120, Time     :  153759.619
------------------------------------------------------------
  Evaluating new KS density.
  Integration grid: deviation in total charge (<rho> - N_e) =   2.272097E-07
  | <rho_up-rho_dn> = N_up-N_dn =     -1.9656; <|rho_up-rho_dn|> =      1.9656
  Pulay mixing of updated and previous charge densities.

  Evaluating partitioned Hartree potential by multipole expansion.
  | Analytical far-field extrapolation by fixed multipoles:
  | Hartree multipole sum: apparent total charge =  -0.907355E-05
  Summing up the Hartree potential.
  Time summed over all CPUs for potential: real work        0.034 s, elapsed        0.035 s
  | RMS charge density error from multipole expansion :   0.720707E-03

  Integrating Hamiltonian matrix: batch-based integration.
  Time summed over all CPUs for integration: real work        0.069 s, elapsed        0.072 s

  Updating Kohn-Sham eigenvalues, eigenvectors, occupation numbers, and Fermi level.
  Solving generalized eigenproblem
  Solving real symmetric generalised eigenvalue problem by standard ScaLAPACK.
  Using Cholesky factor for transformation
  Using 1-stage real ELPA solver
  Solving real symmetric generalised eigenvalue problem by standard ScaLAPACK.
  Using Cholesky factor for transformation
  Using 1-stage real ELPA solver
  Determining occupation numbers for Kohn-Sham eigenstates.
  | Chemical potential (Fermi level) in eV                 : -.70399686E+01
  | Error in electron count due to remaining E_F inaccuracy: 0.00000000E+00
  | Maximum occupation number of highest empty state:  0.00E+00

  Current spin moment of the entire structure :
  | N = N_up - N_down :    0.00
  | S                 :    0.00
  | J                 :    1.00

  Highest occupied state (VBM) at     -8.03032662 eV
  | Occupation number:      1.00000000
  | Spin channel:        2

  Lowest unoccupied state (CBM) at     1.09043826 eV
  | Occupation number:      0.00000000
  | Spin channel:        1

  Overall HOMO-LUMO gap:      9.12076488 eV.

  Total energy components:
  | Sum of eigenvalues            :          -0.84849680 Ha         -23.08877271 eV
  | XC energy correction          :          -0.56557110 Ha         -15.38997266 eV
  | XC potential correction       :           0.73071122 Ha          19.88366393 eV
  | Free-atom electrostatic energy:          -0.35631508 Ha          -9.69582653 eV
  | Hartree energy correction     :           0.00742851 Ha           0.20214015 eV
  | van der Waals energy corr.    :           0.00000000 Ha           0.00000000 eV
  | Entropy correction            :           0.00000000 Ha           0.00000000 eV
  | ---------------------------
  | Total energy                  :          -1.03224324 Ha         -28.08876781 eV
  | Total energy, T -> 0          :          -1.03224324 Ha         -28.08876781 eV  <-- do not rely on this value for anything but (periodic) metals
  | Electronic free energy        :          -1.03224324 Ha         -28.08876781 eV

  Derived energy quantities:
  | Kinetic energy                :           0.88731800 Ha          24.14515131 eV
  | Electrostatic energy          :          -1.35399015 Ha         -36.84394647 eV
  | Energy correction for multipole
  | error in Hartree potential    :          -0.00016192 Ha          -0.00440617 eV
  | Sum of eigenvalues per atom                           :         -11.54438635 eV
  | Total energy (T->0) per atom                          :         -14.04438391 eV  <-- do not rely on this value for anything but (periodic) metals
  | Electronic free energy per atom                       :         -14.04438391 eV

  Self-consistency convergence accuracy:
  | Change of charge/spin density : 0.1478E+00 0.2676E+00
  | Change of sum of eigenvalues  : 0.1229E-01 eV
  | Change of total energy        : 0.4392E-01 eV

  End self-consistency iteration #     3       :  max(cpu_time)    wall_clock(cpu1)
  | Time for this iteration                    :        0.026 s           0.026 s
  | Charge density update                      :        0.007 s           0.006 s
  | Density mixing                             :        0.001 s           0.002 s
  | Hartree multipole update                   :        0.001 s           0.001 s
  | Hartree multipole summation                :        0.005 s           0.005 s
  | Integration                                :        0.009 s           0.009 s
  | Solution of K.-S. eqns.                    :        0.002 s           0.002 s
  | Total energy evaluation                    :        0.000 s           0.001 s
------------------------------------------------------------

------------------------------------------------------------
          Begin self-consistency iteration #    4

  Date     :  20220120, Time     :  153759.650
------------------------------------------------------------
  Evaluating new KS density.
  Integration grid: deviation in total charge (<rho> - N_e) =   2.273159E-07
  | <rho_up-rho_dn> = N_up-N_dn =     -1.9666; <|rho_up-rho_dn|> =      1.9666
  Pulay mixing of updated and previous charge densities.

  Evaluating partitioned Hartree potential by multipole expansion.
  | Analytical far-field extrapolation by fixed multipoles:
  | Hartree multipole sum: apparent total charge =  -0.905207E-05
  Summing up the Hartree potential.
  Time summed over all CPUs for potential: real work        0.039 s, elapsed        0.043 s
  | RMS charge density error from multipole expansion :   0.736519E-03

  Integrating Hamiltonian matrix: batch-based integration.
  Time summed over all CPUs for integration: real work        0.071 s, elapsed        0.076 s

  Updating Kohn-Sham eigenvalues, eigenvectors, occupation numbers, and Fermi level.
  Solving generalized eigenproblem
  Solving real symmetric generalised eigenvalue problem by standard ScaLAPACK.
  Using Cholesky factor for transformation
  Using 1-stage real ELPA solver
  Solving real symmetric generalised eigenvalue problem by standard ScaLAPACK.
  Using Cholesky factor for transformation
  Using 1-stage real ELPA solver
  Determining occupation numbers for Kohn-Sham eigenstates.
  | Chemical potential (Fermi level) in eV                 : -.70438124E+01
  | Error in electron count due to remaining E_F inaccuracy: 0.00000000E+00
  | Maximum occupation number of highest empty state:  0.00E+00

  Current spin moment of the entire structure :
  | N = N_up - N_down :    0.00
  | S                 :    0.00
  | J                 :    1.00

  Highest occupied state (VBM) at     -8.24891686 eV
  | Occupation number:      1.00000000
  | Spin channel:        2

  Lowest unoccupied state (CBM) at     1.08593278 eV
  | Occupation number:      0.00000000
  | Spin channel:        1

  Overall HOMO-LUMO gap:      9.33484963 eV.

  Total energy components:
  | Sum of eigenvalues            :          -0.85599928 Ha         -23.29292566 eV
  | XC energy correction          :          -0.56774164 Ha         -15.44903607 eV
  | XC potential correction       :           0.73353628 Ha          19.96053784 eV
  | Free-atom electrostatic energy:          -0.35631508 Ha          -9.69582653 eV
  | Hartree energy correction     :           0.00530504 Ha           0.14435741 eV
  | van der Waals energy corr.    :           0.00000000 Ha           0.00000000 eV
  | Entropy correction            :           0.00000000 Ha           0.00000000 eV
  | ---------------------------
  | Total energy                  :          -1.04121468 Ha         -28.33289301 eV
  | Total energy, T -> 0          :          -1.04121468 Ha         -28.33289301 eV  <-- do not rely on this value for anything but (periodic) metals
  | Electronic free energy        :          -1.04121468 Ha         -28.33289301 eV

  Derived energy quantities:
  | Kinetic energy                :           0.88514028 Ha          24.08589243 eV
  | Electrostatic energy          :          -1.35861332 Ha         -36.96974937 eV
  | Energy correction for multipole
  | error in Hartree potential    :          -0.00016649 Ha          -0.00453041 eV
  | Sum of eigenvalues per atom                           :         -11.64646283 eV
  | Total energy (T->0) per atom                          :         -14.16644650 eV  <-- do not rely on this value for anything but (periodic) metals
  | Electronic free energy per atom                       :         -14.16644650 eV

  Self-consistency convergence accuracy:
  | Change of charge/spin density : 0.1488E+00 0.2671E+00
  | Change of sum of eigenvalues  : -.2042E+00 eV
  | Change of total energy        : -.2441E+00 eV

  End self-consistency iteration #     4       :  max(cpu_time)    wall_clock(cpu1)
  | Time for this iteration                    :        0.032 s           0.032 s
  | Charge density update                      :        0.009 s           0.008 s
  | Density mixing                             :        0.002 s           0.003 s
  | Hartree multipole update                   :        0.002 s           0.001 s
  | Hartree multipole summation                :        0.006 s           0.006 s
  | Integration                                :        0.010 s           0.010 s
  | Solution of K.-S. eqns.                    :        0.002 s           0.002 s
  | Total energy evaluation                    :        0.000 s           0.000 s
------------------------------------------------------------

------------------------------------------------------------
          Begin self-consistency iteration #    5

  Date     :  20220120, Time     :  153759.683
------------------------------------------------------------
  Evaluating new KS density.
  Integration grid: deviation in total charge (<rho> - N_e) =   2.272192E-07
  | <rho_up-rho_dn> = N_up-N_dn =     -1.9661; <|rho_up-rho_dn|> =      1.9661
  Pulay mixing of updated and previous charge densities.

  Evaluating partitioned Hartree potential by multipole expansion.
  | Analytical far-field extrapolation by fixed multipoles:
  | Hartree multipole sum: apparent total charge =  -0.859248E-05
  Summing up the Hartree potential.
  Time summed over all CPUs for potential: real work        0.034 s, elapsed        0.035 s
  | RMS charge density error from multipole expansion :   0.869737E-03

  Integrating Hamiltonian matrix: batch-based integration.
  Time summed over all CPUs for integration: real work        0.070 s, elapsed        0.073 s

  Updating Kohn-Sham eigenvalues, eigenvectors, occupation numbers, and Fermi level.
  Solving generalized eigenproblem
  Solving real symmetric generalised eigenvalue problem by standard ScaLAPACK.
  Using Cholesky factor for transformation
  Using 1-stage real ELPA solver
  Solving real symmetric generalised eigenvalue problem by standard ScaLAPACK.
  Using Cholesky factor for transformation
  Using 1-stage real ELPA solver
  Determining occupation numbers for Kohn-Sham eigenstates.
  | Chemical potential (Fermi level) in eV                 : -.68954303E+01
  | Error in electron count due to remaining E_F inaccuracy: 0.00000000E+00
  | Maximum occupation number of highest empty state:  0.00E+00

  Current spin moment of the entire structure :
  | N = N_up - N_down :    0.00
  | S                 :    0.00
  | J                 :    1.00

  Highest occupied state (VBM) at     -8.57493883 eV
  | Occupation number:      1.00000000
  | Spin channel:        2

  Lowest unoccupied state (CBM) at     0.77230230 eV
  | Occupation number:      0.00000000
  | Spin channel:        1

  Overall HOMO-LUMO gap:      9.34724113 eV.

  Total energy components:
  | Sum of eigenvalues            :          -0.85443870 Ha         -23.25046000 eV
  | XC energy correction          :          -0.60552564 Ha         -16.47719100 eV
  | XC potential correction       :           0.78136059 Ha          21.26190341 eV
  | Free-atom electrostatic energy:          -0.35631508 Ha          -9.69582653 eV
  | Hartree energy correction     :          -0.02869788 Ha          -0.78090906 eV
  | van der Waals energy corr.    :           0.00000000 Ha           0.00000000 eV
  | Entropy correction            :           0.00000000 Ha           0.00000000 eV
  | ---------------------------
  | Total energy                  :          -1.06361671 Ha         -28.94248317 eV
  | Total energy, T -> 0          :          -1.06361671 Ha         -28.94248317 eV  <-- do not rely on this value for anything but (periodic) metals
  | Electronic free energy        :          -1.06361671 Ha         -28.94248317 eV

  Derived energy quantities:
  | Kinetic energy                :           0.95794701 Ha          26.06706430 eV
  | Electrostatic energy          :          -1.41603807 Ha         -38.53235647 eV
  | Energy correction for multipole
  | error in Hartree potential    :          -0.00020944 Ha          -0.00569918 eV
  | Sum of eigenvalues per atom                           :         -11.62523000 eV
  | Total energy (T->0) per atom                          :         -14.47124159 eV  <-- do not rely on this value for anything but (periodic) metals
  | Electronic free energy per atom                       :         -14.47124159 eV

  Self-consistency convergence accuracy:
  | Change of charge/spin density : 0.1496E+00 0.2706E+00
  | Change of sum of eigenvalues  : 0.4247E-01 eV
  | Change of total energy        : -.6096E+00 eV

  End self-consistency iteration #     5       :  max(cpu_time)    wall_clock(cpu1)
  | Time for this iteration                    :        0.026 s           0.026 s
  | Charge density update                      :        0.007 s           0.006 s
  | Density mixing                             :        0.001 s           0.002 s
  | Hartree multipole update                   :        0.001 s           0.001 s
  | Hartree multipole summation                :        0.005 s           0.005 s
  | Integration                                :        0.009 s           0.009 s
  | Solution of K.-S. eqns.                    :        0.001 s           0.002 s
  | Total energy evaluation                    :        0.000 s           0.001 s
------------------------------------------------------------

------------------------------------------------------------
          Begin self-consistency iteration #    6

  Date     :  20220120, Time     :  153759.711
------------------------------------------------------------
  Evaluating new KS density.
  Integration grid: deviation in total charge (<rho> - N_e) =   2.191747E-07
  | <rho_up-rho_dn> = N_up-N_dn =     -1.8755; <|rho_up-rho_dn|> =      1.8755
  Pulay mixing of updated and previous charge densities.

  Evaluating partitioned Hartree potential by multipole expansion.
  | Analytical far-field extrapolation by fixed multipoles:
  | Hartree multipole sum: apparent total charge =  -0.553408E-05
  Summing up the Hartree potential.
  Time summed over all CPUs for potential: real work        0.033 s, elapsed        0.034 s
  | RMS charge density error from multipole expansion :   0.213122E-02

  Integrating Hamiltonian matrix: batch-based integration.
  Time summed over all CPUs for integration: real work        0.067 s, elapsed        0.069 s

  Updating Kohn-Sham eigenvalues, eigenvectors, occupation numbers, and Fermi level.
  Solving generalized eigenproblem
  Solving real symmetric generalised eigenvalue problem by standard ScaLAPACK.
  Using Cholesky factor for transformation
  Using 1-stage real ELPA solver
  Solving real symmetric generalised eigenvalue problem by standard ScaLAPACK.
  Using Cholesky factor for transformation
  Using 1-stage real ELPA solver
  Determining occupation numbers for Kohn-Sham eigenstates.
  | Chemical potential (Fermi level) in eV                 : -.36720238E+01
  | Error in electron count due to remaining E_F inaccuracy: 0.00000000E+00
  | Maximum occupation number of highest empty state:  0.00E+00

  Current spin moment of the entire structure :
  | N = N_up - N_down :    0.00
  | S                 :    0.00
  | J                 :    1.00

  Highest occupied state (VBM) at     -7.27181131 eV
  | Occupation number:      1.00000000
  | Spin channel:        2

  Lowest unoccupied state (CBM) at     1.56916380 eV
  | Occupation number:      0.00000000
  | Spin channel:        1

  Overall HOMO-LUMO gap:      8.84097511 eV.

  Total energy components:
  | Sum of eigenvalues            :          -0.66206141 Ha         -18.01560771 eV
  | XC energy correction          :          -0.75394488 Ha         -20.51588415 eV
  | XC potential correction       :           0.96934459 Ha          26.37720831 eV
  | Free-atom electrostatic energy:          -0.35631508 Ha          -9.69582653 eV
  | Hartree energy correction     :          -0.29667456 Ha          -8.07292546 eV
  | van der Waals energy corr.    :           0.00000000 Ha           0.00000000 eV
  | Entropy correction            :           0.00000000 Ha           0.00000000 eV
  | ---------------------------
  | Total energy                  :          -1.09965134 Ha         -29.92303553 eV
  | Total energy, T -> 0          :          -1.09965134 Ha         -29.92303553 eV  <-- do not rely on this value for anything but (periodic) metals
  | Electronic free energy        :          -1.09965134 Ha         -29.92303553 eV

  Derived energy quantities:
  | Kinetic energy                :           1.40639074 Ha          38.26983915 eV
  | Electrostatic energy          :          -1.75209720 Ha         -47.67699054 eV
  | Energy correction for multipole
  | error in Hartree potential    :          -0.00052356 Ha          -0.01424668 eV
  | Sum of eigenvalues per atom                           :          -9.00780385 eV
  | Total energy (T->0) per atom                          :         -14.96151777 eV  <-- do not rely on this value for anything but (periodic) metals
  | Electronic free energy per atom                       :         -14.96151777 eV

  Self-consistency convergence accuracy:
  | Change of charge/spin density : 0.1231E+00 0.2730E+00
  | Change of sum of eigenvalues  : 0.5235E+01 eV
  | Change of total energy        : -.9806E+00 eV

  End self-consistency iteration #     6       :  max(cpu_time)    wall_clock(cpu1)
  | Time for this iteration                    :        0.026 s           0.025 s
  | Charge density update                      :        0.007 s           0.006 s
  | Density mixing                             :        0.002 s           0.002 s
  | Hartree multipole update                   :        0.001 s           0.001 s
  | Hartree multipole summation                :        0.005 s           0.005 s
  | Integration                                :        0.009 s           0.009 s
  | Solution of K.-S. eqns.                    :        0.001 s           0.001 s
  | Total energy evaluation                    :        0.000 s           0.000 s
------------------------------------------------------------

------------------------------------------------------------
          Begin self-consistency iteration #    7

  Date     :  20220120, Time     :  153759.740
------------------------------------------------------------
  Evaluating new KS density.
  Integration grid: deviation in total charge (<rho> - N_e) =   1.640937E-07
  | <rho_up-rho_dn> = N_up-N_dn =     -1.3190; <|rho_up-rho_dn|> =      1.3190
  Pulay mixing of updated and previous charge densities.

  Evaluating partitioned Hartree potential by multipole expansion.
  | Analytical far-field extrapolation by fixed multipoles:
  | Hartree multipole sum: apparent total charge =   0.804133E-06
  Summing up the Hartree potential.
  Time summed over all CPUs for potential: real work        0.033 s, elapsed        0.033 s
  | RMS charge density error from multipole expansion :   0.438399E-02

  Integrating Hamiltonian matrix: batch-based integration.
  Time summed over all CPUs for integration: real work        0.065 s, elapsed        0.068 s

  Updating Kohn-Sham eigenvalues, eigenvectors, occupation numbers, and Fermi level.
  Solving generalized eigenproblem
  Solving real symmetric generalised eigenvalue problem by standard ScaLAPACK.
  Using Cholesky factor for transformation
  Using 1-stage real ELPA solver
  Solving real symmetric generalised eigenvalue problem by standard ScaLAPACK.
  Using Cholesky factor for transformation
  Using 1-stage real ELPA solver
  Determining occupation numbers for Kohn-Sham eigenstates.
  | Chemical potential (Fermi level) in eV                 : -.13722281E+01
  | Error in electron count due to remaining E_F inaccuracy: 0.00000000E+00
  | Maximum occupation number of highest empty state:  0.00E+00

  Current spin moment of the entire structure :
  | N = N_up - N_down :    0.00
  | S                 :    0.00
  | J                 :    1.00

  Highest occupied state (VBM) at     -1.97601160 eV
  | Occupation number:      1.00000000
  | Spin channel:        2

  Lowest unoccupied state (CBM) at     2.11079326 eV
  | Occupation number:      0.00000000
  | Spin channel:        1

  Overall HOMO-LUMO gap:      4.08680486 eV.

  Total energy components:
  | Sum of eigenvalues            :          -0.20179414 Ha          -5.49109800 eV
  | XC energy correction          :          -1.05184723 Ha         -28.62221928 eV
  | XC potential correction       :           1.35699278 Ha          36.92565236 eV
  | Free-atom electrostatic energy:          -0.35631508 Ha          -9.69582653 eV
  | Hartree energy correction     :          -0.92482196 Ha         -25.16568601 eV
  | van der Waals energy corr.    :           0.00000000 Ha           0.00000000 eV
  | Entropy correction            :           0.00000000 Ha           0.00000000 eV
  | ---------------------------
  | Total energy                  :          -1.17778562 Ha         -32.04917747 eV
  | Total energy, T -> 0          :          -1.17778562 Ha         -32.04917747 eV  <-- do not rely on this value for anything but (periodic) metals
  | Electronic free energy        :          -1.17778562 Ha         -32.04917747 eV

  Derived energy quantities:
  | Kinetic energy                :           2.03376347 Ha          55.34151982 eV
  | Electrostatic energy          :          -2.15970187 Ha         -58.76847800 eV
  | Energy correction for multipole
  | error in Hartree potential    :          -0.00100708 Ha          -0.02740406 eV
  | Sum of eigenvalues per atom                           :          -2.74554900 eV
  | Total energy (T->0) per atom                          :         -16.02458873 eV  <-- do not rely on this value for anything but (periodic) metals
  | Electronic free energy per atom                       :         -16.02458873 eV

  Self-consistency convergence accuracy:
  | Change of charge/spin density : 0.8784E-01 0.2909E+00
  | Change of sum of eigenvalues  : 0.1252E+02 eV
  | Change of total energy        : -.2126E+01 eV

  End self-consistency iteration #     7       :  max(cpu_time)    wall_clock(cpu1)
  | Time for this iteration                    :        0.026 s           0.025 s
  | Charge density update                      :        0.007 s           0.006 s
  | Density mixing                             :        0.002 s           0.002 s
  | Hartree multipole update                   :        0.001 s           0.001 s
  | Hartree multipole summation                :        0.004 s           0.005 s
  | Integration                                :        0.009 s           0.008 s
  | Solution of K.-S. eqns.                    :        0.001 s           0.002 s
  | Total energy evaluation                    :        0.000 s           0.001 s
------------------------------------------------------------

------------------------------------------------------------
          Begin self-consistency iteration #    8

  Date     :  20220120, Time     :  153759.769
------------------------------------------------------------
  Evaluating new KS density.
  Integration grid: deviation in total charge (<rho> - N_e) =   4.663635E-08
  | <rho_up-rho_dn> = N_up-N_dn =     -0.1878; <|rho_up-rho_dn|> =      1.2868
  Pulay mixing of updated and previous charge densities.

  Evaluating partitioned Hartree potential by multipole expansion.
  | Analytical far-field extrapolation by fixed multipoles:
  | Hartree multipole sum: apparent total charge =   0.818977E-06
  Summing up the Hartree potential.
  Time summed over all CPUs for potential: real work        0.033 s, elapsed        0.034 s
  | RMS charge density error from multipole expansion :   0.438919E-02

  Integrating Hamiltonian matrix: batch-based integration.
  Time summed over all CPUs for integration: real work        0.065 s, elapsed        0.068 s

  Updating Kohn-Sham eigenvalues, eigenvectors, occupation numbers, and Fermi level.
  Solving generalized eigenproblem
  Solving real symmetric generalised eigenvalue problem by standard ScaLAPACK.
  Using Cholesky factor for transformation
  Using 1-stage real ELPA solver
  Solving real symmetric generalised eigenvalue problem by standard ScaLAPACK.
  Using Cholesky factor for transformation
  Using 1-stage real ELPA solver
  Determining occupation numbers for Kohn-Sham eigenstates.
  | Chemical potential (Fermi level) in eV                 : -.13565583E+01
  | Error in electron count due to remaining E_F inaccuracy: 0.00000000E+00
  | Maximum occupation number of highest empty state:  0.00E+00

  Current spin moment of the entire structure :
  | N = N_up - N_down :    0.00
  | S                 :    0.00
  | J                 :    1.00

  Highest occupied state (VBM) at     -1.96246402 eV
  | Occupation number:      1.00000000
  | Spin channel:        2

  Lowest unoccupied state (CBM) at     2.10755658 eV
  | Occupation number:      0.00000000
  | Spin channel:        1

  Overall HOMO-LUMO gap:      4.07002060 eV.

  Total energy components:
  | Sum of eigenvalues            :          -0.20072616 Ha          -5.46203665 eV
  | XC energy correction          :          -1.05212900 Ha         -28.62988685 eV
  | XC potential correction       :           1.35738681 Ha          36.93637441 eV
  | Free-atom electrostatic energy:          -0.35631508 Ha          -9.69582653 eV
  | Hartree energy correction     :          -0.92617171 Ha         -25.20241448 eV
  | van der Waals energy corr.    :           0.00000000 Ha           0.00000000 eV
  | Entropy correction            :           0.00000000 Ha           0.00000000 eV
  | ---------------------------
  | Total energy                  :          -1.17795513 Ha         -32.05379010 eV
  | Total energy, T -> 0          :          -1.17795513 Ha         -32.05379010 eV  <-- do not rely on this value for anything but (periodic) metals
  | Electronic free energy        :          -1.17795513 Ha         -32.05379010 eV

  Derived energy quantities:
  | Kinetic energy                :           2.03449829 Ha          55.36151523 eV
  | Electrostatic energy          :          -2.16032442 Ha         -58.78541848 eV
  | Energy correction for multipole
  | error in Hartree potential    :          -0.00100811 Ha          -0.02743201 eV
  | Sum of eigenvalues per atom                           :          -2.73101833 eV
  | Total energy (T->0) per atom                          :         -16.02689505 eV  <-- do not rely on this value for anything but (periodic) metals
  | Electronic free energy per atom                       :         -16.02689505 eV

  Self-consistency convergence accuracy:
  | Change of charge/spin density : 0.4305E+00 0.3582E+00
  | Change of sum of eigenvalues  : 0.2906E-01 eV
  | Change of total energy        : -.4613E-02 eV

  End self-consistency iteration #     8       :  max(cpu_time)    wall_clock(cpu1)
  | Time for this iteration                    :        0.025 s           0.025 s
  | Charge density update                      :        0.007 s           0.006 s
  | Density mixing                             :        0.002 s           0.002 s
  | Hartree multipole update                   :        0.001 s           0.002 s
  | Hartree multipole summation                :        0.004 s           0.004 s
  | Integration                                :        0.009 s           0.009 s
  | Solution of K.-S. eqns.                    :        0.001 s           0.001 s
  | Total energy evaluation                    :        0.000 s           0.000 s
------------------------------------------------------------

------------------------------------------------------------
          Begin self-consistency iteration #    9

  Date     :  20220120, Time     :  153759.798
------------------------------------------------------------
  Evaluating new KS density.
  Integration grid: deviation in total charge (<rho> - N_e) =   4.613302E-08
  | <rho_up-rho_dn> = N_up-N_dn =     -0.1829; <|rho_up-rho_dn|> =      1.2892
  Pulay mixing of updated and previous charge densities.

  Evaluating partitioned Hartree potential by multipole expansion.
  | Analytical far-field extrapolation by fixed multipoles:
  | Hartree multipole sum: apparent total charge =  -0.298001E-06
  Summing up the Hartree potential.
  Time summed over all CPUs for potential: real work        0.033 s, elapsed        0.034 s
  | RMS charge density error from multipole expansion :   0.414547E-02

  Integrating Hamiltonian matrix: batch-based integration.
  Time summed over all CPUs for integration: real work        0.066 s, elapsed        0.069 s

  Updating Kohn-Sham eigenvalues, eigenvectors, occupation numbers, and Fermi level.
  Solving generalized eigenproblem
  Solving real symmetric generalised eigenvalue problem by standard ScaLAPACK.
  Using Cholesky factor for transformation
  Using 1-stage real ELPA solver
  Solving real symmetric generalised eigenvalue problem by standard ScaLAPACK.
  Using Cholesky factor for transformation
  Using 1-stage real ELPA solver
  Determining occupation numbers for Kohn-Sham eigenstates.
  | Chemical potential (Fermi level) in eV                 : -.21557241E+01
  | Error in electron count due to remaining E_F inaccuracy: 0.00000000E+00
  | Maximum occupation number of highest empty state:  0.00E+00

  Current spin moment of the entire structure :
  | N = N_up - N_down :    0.00
  | S                 :    0.00
  | J                 :    1.00

  Highest occupied state (VBM) at     -2.69464529 eV
  | Occupation number:      1.00000000
  | Spin channel:        2

  Lowest unoccupied state (CBM) at     1.72609586 eV
  | Occupation number:      0.00000000
  | Spin channel:        1

  Overall HOMO-LUMO gap:      4.42074114 eV.

  Total energy components:
  | Sum of eigenvalues            :          -0.25795314 Ha          -7.01926197 eV
  | XC energy correction          :          -1.00581597 Ha         -27.36964516 eV
  | XC potential correction       :           1.29698708 Ha          35.29281416 eV
  | Free-atom electrostatic energy:          -0.35631508 Ha          -9.69582653 eV
  | Hartree energy correction     :          -0.82761514 Ha         -22.52055369 eV
  | van der Waals energy corr.    :           0.00000000 Ha           0.00000000 eV
  | Entropy correction            :           0.00000000 Ha           0.00000000 eV
  | ---------------------------
  | Total energy                  :          -1.15071224 Ha         -31.31247319 eV
  | Total energy, T -> 0          :          -1.15071224 Ha         -31.31247319 eV  <-- do not rely on this value for anything but (periodic) metals
  | Electronic free energy        :          -1.15071224 Ha         -31.31247319 eV

  Derived energy quantities:
  | Kinetic energy                :           1.97873812 Ha          53.84420393 eV
  | Electrostatic energy          :          -2.12363439 Ha         -57.78703196 eV
  | Energy correction for multipole
  | error in Hartree potential    :          -0.00095066 Ha          -0.02586880 eV
  | Sum of eigenvalues per atom                           :          -3.50963099 eV
  | Total energy (T->0) per atom                          :         -15.65623660 eV  <-- do not rely on this value for anything but (periodic) metals
  | Electronic free energy per atom                       :         -15.65623660 eV

  Self-consistency convergence accuracy:
  | Change of charge/spin density : 0.4315E+00 0.3583E+00
  | Change of sum of eigenvalues  : -.1557E+01 eV
  | Change of total energy        : 0.7413E+00 eV

  End self-consistency iteration #     9       :  max(cpu_time)    wall_clock(cpu1)
  | Time for this iteration                    :        0.026 s           0.025 s
  | Charge density update                      :        0.007 s           0.006 s
  | Density mixing                             :        0.002 s           0.002 s
  | Hartree multipole update                   :        0.001 s           0.001 s
  | Hartree multipole summation                :        0.004 s           0.004 s
  | Integration                                :        0.009 s           0.009 s
  | Solution of K.-S. eqns.                    :        0.001 s           0.001 s
  | Total energy evaluation                    :        0.000 s           0.000 s
------------------------------------------------------------

------------------------------------------------------------
          Begin self-consistency iteration #   10

  Date     :  20220120, Time     :  153759.827
------------------------------------------------------------
  Evaluating new KS density.
  Integration grid: deviation in total charge (<rho> - N_e) =   4.578368E-08
  | <rho_up-rho_dn> = N_up-N_dn =     -0.1836; <|rho_up-rho_dn|> =      1.1625
  Pulay mixing of updated and previous charge densities.

  Evaluating partitioned Hartree potential by multipole expansion.
  | Analytical far-field extrapolation by fixed multipoles:
  | Hartree multipole sum: apparent total charge =  -0.580863E-05
  Summing up the Hartree potential.
  Time summed over all CPUs for potential: real work        0.033 s, elapsed        0.034 s
  | RMS charge density error from multipole expansion :   0.207224E-02

  Integrating Hamiltonian matrix: batch-based integration.
  Time summed over all CPUs for integration: real work        0.073 s, elapsed        0.077 s

  Updating Kohn-Sham eigenvalues, eigenvectors, occupation numbers, and Fermi level.
  Solving generalized eigenproblem
  Solving real symmetric generalised eigenvalue problem by standard ScaLAPACK.
  Using Cholesky factor for transformation
  Using 1-stage real ELPA solver
  Solving real symmetric generalised eigenvalue problem by standard ScaLAPACK.
  Using Cholesky factor for transformation
  Using 1-stage real ELPA solver
  Determining occupation numbers for Kohn-Sham eigenstates.
  | Chemical potential (Fermi level) in eV                 : -.93604786E+01
  | Error in electron count due to remaining E_F inaccuracy: 0.00000000E+00
  | Maximum occupation number of highest empty state:  0.00E+00

  Current spin moment of the entire structure :
  | N = N_up - N_down :    0.00
  | S                 :    0.00
  | J                 :    1.00

  Highest occupied state (VBM) at    -10.24718182 eV
  | Occupation number:      1.00000000
  | Spin channel:        2

  Lowest unoccupied state (CBM) at    -0.48164727 eV
  | Occupation number:      0.00000000
  | Spin channel:        1

  Overall HOMO-LUMO gap:      9.76553455 eV.

  Total energy components:
  | Sum of eigenvalues            :          -0.80604585 Ha         -21.93362365 eV
  | XC energy correction          :          -0.68409147 Ha         -18.61507599 eV
  | XC potential correction       :           0.87630726 Ha          23.84553381 eV
  | Free-atom electrostatic energy:          -0.35631508 Ha          -9.69582653 eV
  | Hartree energy correction     :          -0.16396839 Ha          -4.46180680 eV
  | van der Waals energy corr.    :           0.00000000 Ha           0.00000000 eV
  | Entropy correction            :           0.00000000 Ha           0.00000000 eV
  | ---------------------------
  | Total energy                  :          -1.13411352 Ha         -30.86079916 eV
  | Total energy, T -> 0          :          -1.13411352 Ha         -30.86079916 eV  <-- do not rely on this value for anything but (periodic) metals
  | Electronic free energy        :          -1.13411352 Ha         -30.86079916 eV

  Derived energy quantities:
  | Kinetic energy                :           1.20259041 Ha          32.72415009 eV
  | Electrostatic energy          :          -1.65261247 Ha         -44.96987326 eV
  | Energy correction for multipole
  | error in Hartree potential    :          -0.00036624 Ha          -0.00996579 eV
  | Sum of eigenvalues per atom                           :         -10.96681183 eV
  | Total energy (T->0) per atom                          :         -15.43039958 eV  <-- do not rely on this value for anything but (periodic) metals
  | Electronic free energy per atom                       :         -15.43039958 eV

  Self-consistency convergence accuracy:
  | Change of charge/spin density : 0.3877E+00 0.3414E+00
  | Change of sum of eigenvalues  : -.1491E+02 eV
  | Change of total energy        : 0.4517E+00 eV

  End self-consistency iteration #    10       :  max(cpu_time)    wall_clock(cpu1)
  | Time for this iteration                    :        0.028 s           0.026 s
  | Charge density update                      :        0.008 s           0.006 s
  | Density mixing                             :        0.002 s           0.001 s
  | Hartree multipole update                   :        0.001 s           0.002 s
  | Hartree multipole summation                :        0.004 s           0.004 s
  | Integration                                :        0.010 s           0.010 s
  | Solution of K.-S. eqns.                    :        0.001 s           0.002 s
  | Total energy evaluation                    :        0.000 s           0.001 s
------------------------------------------------------------

------------------------------------------------------------
          Begin self-consistency iteration #   11

  Date     :  20220120, Time     :  153759.854
------------------------------------------------------------
  Evaluating new KS density.
  Integration grid: deviation in total charge (<rho> - N_e) =   1.078532E-08
  | <rho_up-rho_dn> = N_up-N_dn =      0.0220; <|rho_up-rho_dn|> =      0.5256
  Pulay mixing of updated and previous charge densities.

  Evaluating partitioned Hartree potential by multipole expansion.
  | Analytical far-field extrapolation by fixed multipoles:
  | Hartree multipole sum: apparent total charge =  -0.100378E-04
  Summing up the Hartree potential.
  Time summed over all CPUs for potential: real work        0.033 s, elapsed        0.036 s
  | RMS charge density error from multipole expansion :   0.119028E-02

  Integrating Hamiltonian matrix: batch-based integration.
  Time summed over all CPUs for integration: real work        0.074 s, elapsed        0.077 s

  Updating Kohn-Sham eigenvalues, eigenvectors, occupation numbers, and Fermi level.
  Solving generalized eigenproblem
  Solving real symmetric generalised eigenvalue problem by standard ScaLAPACK.
  Using Cholesky factor for transformation
  Using 1-stage real ELPA solver
  Solving real symmetric generalised eigenvalue problem by standard ScaLAPACK.
  Using Cholesky factor for transformation
  Using 1-stage real ELPA solver
  Determining occupation numbers for Kohn-Sham eigenstates.
  | Chemical potential (Fermi level) in eV                 : -.13337174E+02
  | Error in electron count due to remaining E_F inaccuracy: 0.00000000E+00
  | Maximum occupation number of highest empty state:  0.00E+00

  Current spin moment of the entire structure :
  | N = N_up - N_down :    0.00
  | S                 :    0.00
  | J                 :    1.00

  Highest occupied state (VBM) at    -13.78564354 eV
  | Occupation number:      1.00000000
  | Spin channel:        2

  Lowest unoccupied state (CBM) at    -1.80342070 eV
  | Occupation number:      0.00000000
  | Spin channel:        1

  Overall HOMO-LUMO gap:     11.98222284 eV.

  Total energy components:
  | Sum of eigenvalues            :          -1.08772644 Ha         -29.59854228 eV
  | XC energy correction          :          -0.52749098 Ha         -14.35375977 eV
  | XC potential correction       :           0.67585536 Ha          18.39095994 eV
  | Free-atom electrostatic energy:          -0.35631508 Ha          -9.69582653 eV
  | Hartree energy correction     :           0.13169022 Ha           3.58347319 eV
  | van der Waals energy corr.    :           0.00000000 Ha           0.00000000 eV
  | Entropy correction            :           0.00000000 Ha           0.00000000 eV
  | ---------------------------
  | Total energy                  :          -1.16398691 Ha         -31.67369546 eV
  | Total energy, T -> 0          :          -1.16398691 Ha         -31.67369546 eV  <-- do not rely on this value for anything but (periodic) metals
  | Electronic free energy        :          -1.16398691 Ha         -31.67369546 eV

  Derived energy quantities:
  | Kinetic energy                :           0.63453444 Ha          17.26656061 eV
  | Electrostatic energy          :          -1.27103038 Ha         -34.58649630 eV
  | Energy correction for multipole
  | error in Hartree potential    :          -0.00003715 Ha          -0.00101095 eV
  | Sum of eigenvalues per atom                           :         -14.79927114 eV
  | Total energy (T->0) per atom                          :         -15.83684773 eV  <-- do not rely on this value for anything but (periodic) metals
  | Electronic free energy per atom                       :         -15.83684773 eV

[...]
  | Change of sum of eigenvalues  : -.4977E-03 eV
  | Change of total energy        : -.7263E-08 eV

  End self-consistency iteration #    29       :  max(cpu_time)    wall_clock(cpu1)
  | Time for this iteration                    :        0.029 s           0.029 s
  | Charge density update                      :        0.007 s           0.006 s
  | Density mixing                             :        0.002 s           0.002 s
  | Hartree multipole update                   :        0.001 s           0.002 s
  | Hartree multipole summation                :        0.005 s           0.005 s
  | Integration                                :        0.010 s           0.010 s
  | Solution of K.-S. eqns.                    :        0.002 s           0.002 s
  | Total energy evaluation                    :        0.000 s           0.001 s
------------------------------------------------------------

------------------------------------------------------------
          Begin self-consistency iteration #   30

  Date     :  20220120, Time     :  153800.482
------------------------------------------------------------
  Evaluating new KS density.
  Integration grid: deviation in total charge (<rho> - N_e) =  -2.660983E-12
  | <rho_up-rho_dn> = N_up-N_dn =     -0.0000; <|rho_up-rho_dn|> =      0.0000
  Pulay mixing of updated and previous charge densities.

  Evaluating partitioned Hartree potential by multipole expansion.
  | Analytical far-field extrapolation by fixed multipoles:
  | Hartree multipole sum: apparent total charge =   0.339122E-06
  Summing up the Hartree potential.
  Time summed over all CPUs for potential: real work        0.034 s, elapsed        0.037 s
  | RMS charge density error from multipole expansion :   0.115825E-02

  Integrating Hamiltonian matrix: batch-based integration.
  Time summed over all CPUs for integration: real work        0.078 s, elapsed        0.086 s

  Updating Kohn-Sham eigenvalues, eigenvectors, occupation numbers, and Fermi level.
  Solving generalized eigenproblem
  Solving real symmetric generalised eigenvalue problem by standard ScaLAPACK.
  Using Cholesky factor for transformation
  Using 1-stage real ELPA solver
  Solving real symmetric generalised eigenvalue problem by standard ScaLAPACK.
  Using Cholesky factor for transformation
  Using 1-stage real ELPA solver
  Determining occupation numbers for Kohn-Sham eigenstates.
  | Chemical potential (Fermi level) in eV                 : -.86517095E+01
  | Error in electron count due to remaining E_F inaccuracy: 0.00000000E+00
  | Maximum occupation number of highest empty state:  0.00E+00

  Current spin moment of the entire structure :
  | N = N_up - N_down :    0.00
  | S                 :    0.00
  | J                 :    1.00

  Highest occupied state (VBM) at    -10.29047719 eV
  | Occupation number:      1.00000000
  | Spin channel:        2

  Lowest unoccupied state (CBM) at     0.46681809 eV
  | Occupation number:      0.00000000
  | Spin channel:        1

  Overall HOMO-LUMO gap:     10.75729528 eV.

  Total energy components:
  | Sum of eigenvalues            :          -0.75633640 Ha         -20.58096069 eV
  | XC energy correction          :          -0.68485036 Ha         -18.63572635 eV
  | XC potential correction       :           0.87917262 Ha          23.92350429 eV
  | Free-atom electrostatic energy:          -0.35631508 Ha          -9.69582653 eV
  | Hartree energy correction     :          -0.24835417 Ha          -6.75806090 eV
  | van der Waals energy corr.    :           0.00000000 Ha           0.00000000 eV
  | Entropy correction            :           0.00000000 Ha           0.00000000 eV
  | ---------------------------
  | Total energy                  :          -1.16668338 Ha         -31.74707017 eV
  | Total energy, T -> 0          :          -1.16668338 Ha         -31.74707017 eV  <-- do not rely on this value for anything but (periodic) metals
  | Electronic free energy        :          -1.16668338 Ha         -31.74707017 eV

  Derived energy quantities:
  | Kinetic energy                :           1.12287304 Ha          30.55493005 eV
  | Electrostatic energy          :          -1.60470607 Ha         -43.66627387 eV
  | Energy correction for multipole
  | error in Hartree potential    :          -0.00009710 Ha          -0.00264236 eV
  | Sum of eigenvalues per atom                           :         -10.29048034 eV
  | Total energy (T->0) per atom                          :         -15.87353508 eV  <-- do not rely on this value for anything but (periodic) metals
  | Electronic free energy per atom                       :         -15.87353508 eV

  Self-consistency convergence accuracy:
  | Change of charge/spin density : 0.3151E-05 0.1842E-05
  | Change of sum of eigenvalues  : -.1151E-03 eV
  | Change of total energy        : 0.2123E-09 eV

  End self-consistency iteration #    30       :  max(cpu_time)    wall_clock(cpu1)
  | Time for this iteration                    :        0.030 s           0.031 s
  | Charge density update                      :        0.007 s           0.007 s
  | Density mixing                             :        0.002 s           0.002 s
  | Hartree multipole update                   :        0.001 s           0.001 s
  | Hartree multipole summation                :        0.005 s           0.005 s
  | Integration                                :        0.011 s           0.011 s
  | Solution of K.-S. eqns.                    :        0.003 s           0.003 s
  | Total energy evaluation                    :        0.000 s           0.000 s
------------------------------------------------------------

------------------------------------------------------------
          Begin self-consistency iteration #   31

  Date     :  20220120, Time     :  153800.514
------------------------------------------------------------
  Evaluating new KS density.
  Integration grid: deviation in total charge (<rho> - N_e) =  -1.416645E-12
  | <rho_up-rho_dn> = N_up-N_dn =     -0.0000; <|rho_up-rho_dn|> =      0.0000
  Pulay mixing of updated and previous charge densities.

  Evaluating partitioned Hartree potential by multipole expansion.
  | Analytical far-field extrapolation by fixed multipoles:
  | Hartree multipole sum: apparent total charge =   0.339267E-06
  Summing up the Hartree potential.
  Time summed over all CPUs for potential: real work        0.033 s, elapsed        0.033 s
  | RMS charge density error from multipole expansion :   0.115826E-02

  Integrating Hamiltonian matrix: batch-based integration.
  Time summed over all CPUs for integration: real work        0.073 s, elapsed        0.077 s

  Updating Kohn-Sham eigenvalues, eigenvectors, occupation numbers, and Fermi level.
  Solving generalized eigenproblem
  Solving real symmetric generalised eigenvalue problem by standard ScaLAPACK.
  Using Cholesky factor for transformation
  Using 1-stage real ELPA solver
  Solving real symmetric generalised eigenvalue problem by standard ScaLAPACK.
  Using Cholesky factor for transformation
  Using 1-stage real ELPA solver
  Determining occupation numbers for Kohn-Sham eigenstates.
  | Chemical potential (Fermi level) in eV                 : -.86555448E+01
  | Error in electron count due to remaining E_F inaccuracy: 0.00000000E+00
  | Maximum occupation number of highest empty state:  0.00E+00

  Current spin moment of the entire structure :
  | N = N_up - N_down :    0.00
  | S                 :    0.00
  | J                 :    1.00

  Highest occupied state (VBM) at    -10.29048251 eV
  | Occupation number:      1.00000000
  | Spin channel:        1

  Lowest unoccupied state (CBM) at     0.46682695 eV
  | Occupation number:      0.00000000
  | Spin channel:        1

  Overall HOMO-LUMO gap:     10.75730946 eV.

  Total energy components:
  | Sum of eigenvalues            :          -0.75633657 Ha         -20.58096524 eV
  | XC energy correction          :          -0.68485031 Ha         -18.63572521 eV
  | XC potential correction       :           0.87917256 Ha          23.92350252 eV
  | Free-atom electrostatic energy:          -0.35631508 Ha          -9.69582653 eV
  | Hartree energy correction     :          -0.24835398 Ha          -6.75805571 eV
  | van der Waals energy corr.    :           0.00000000 Ha           0.00000000 eV
  | Entropy correction            :           0.00000000 Ha           0.00000000 eV
  | ---------------------------
  | Total energy                  :          -1.16668338 Ha         -31.74707017 eV
  | Total energy, T -> 0          :          -1.16668338 Ha         -31.74707017 eV  <-- do not rely on this value for anything but (periodic) metals
  | Electronic free energy        :          -1.16668338 Ha         -31.74707017 eV

  Derived energy quantities:
  | Kinetic energy                :           1.12287321 Ha          30.55493466 eV
  | Electrostatic energy          :          -1.60470628 Ha         -43.66627962 eV
  | Energy correction for multipole
  | error in Hartree potential    :          -0.00009711 Ha          -0.00264239 eV
  | Sum of eigenvalues per atom                           :         -10.29048262 eV
  | Total energy (T->0) per atom                          :         -15.87353508 eV  <-- do not rely on this value for anything but (periodic) metals
  | Electronic free energy per atom                       :         -15.87353508 eV

  Self-consistency convergence accuracy:
  | Change of charge/spin density : 0.3380E-06 0.7061E-06
  | Change of sum of eigenvalues  : -.4558E-05 eV
  | Change of total energy        : -.2131E-09 eV

  Writing Kohn-Sham eigenvalues.

  Spin-up eigenvalues:

  State    Occupation    Eigenvalue [Ha]    Eigenvalue [eV]
      1       1.00000          -0.378168          -10.29048
      2       0.00000           0.017156            0.46683
      3       0.00000           0.046241            1.25829
      4       0.00000           0.162096            4.41086
      5       0.00000           0.316511            8.61271
      6       0.00000           0.316511            8.61271
      7       0.00000           0.368350           10.02331
      8       0.00000           0.555628           15.11940
      9       0.00000           0.749693           20.40018
     10       0.00000           0.763270           20.76964
     11       0.00000           0.763270           20.76964

  Spin-down eigenvalues:

  State    Occupation    Eigenvalue [Ha]    Eigenvalue [eV]
      1       1.00000          -0.378168          -10.29048
      2       0.00000           0.017156            0.46683
      3       0.00000           0.046242            1.25830
      4       0.00000           0.162097            4.41087
      5       0.00000           0.316511            8.61271
      6       0.00000           0.316511            8.61271
      7       0.00000           0.368350           10.02332
      8       0.00000           0.555628           15.11941
      9       0.00000           0.749693           20.40018
     10       0.00000           0.763270           20.76964
     11       0.00000           0.763270           20.76964

  Current spin moment of the entire structure :
  | N = N_up - N_down :    0.00
  | S                 :    0.00
  | J                 :    1.00

  Highest occupied state (VBM) at    -10.29048251 eV
  | Occupation number:      1.00000000
  | Spin channel:        1

  Lowest unoccupied state (CBM) at     0.46682695 eV
  | Occupation number:      0.00000000
  | Spin channel:        1

  Overall HOMO-LUMO gap:     10.75730946 eV.

  Self-consistency cycle converged.

  End self-consistency iteration #    31       :  max(cpu_time)    wall_clock(cpu1)
  | Time for this iteration                    :        0.026 s           0.027 s
  | Charge density update                      :        0.007 s           0.006 s
  | Density mixing                             :        0.002 s           0.002 s
  | Hartree multipole update                   :        0.001 s           0.001 s
  | Hartree multipole summation                :        0.004 s           0.005 s
  | Integration                                :        0.010 s           0.010 s
  | Solution of K.-S. eqns.                    :        0.001 s           0.001 s
  | Total energy evaluation                    :        0.000 s           0.001 s
------------------------------------------------------------
  Obtaining max. number of non-zero basis functions in each batch .
  Evaluating KS electron density on previously omitted grid points.
  Evaluating non-empirical van der Waals correction (Tkatchenko/Scheffler 2009).
  Performing Hirshfeld analysis of fragment charges and moments.
  ----------------------------------------------------------------------
  | Atom     1: H
  |   Hirshfeld charge        :     -0.00000051
  |   Free atom volume        :     10.31539447
  |   Hirshfeld volume        :      5.41033546
  |   Hirshfeld spin moment   :     -0.00000002
  |   Hirshfeld dipole vector :     -0.00000000      -0.00000000      -0.08177346
  |   Hirshfeld dipole moment :      0.08177346
  |   Hirshfeld second moments:      0.11731393       0.00000000       0.00000000
  |                                  0.00000000       0.11731393       0.00000000
  |                                  0.00000000       0.00000000       0.11727456
  ----------------------------------------------------------------------
  | Atom     2: H
  |   Hirshfeld charge        :     -0.00000051
  |   Free atom volume        :     10.31539447
  |   Hirshfeld volume        :      5.41033546
  |   Hirshfeld spin moment   :     -0.00000002
  |   Hirshfeld dipole vector :      0.00000000      -0.00000000       0.08177346
  |   Hirshfeld dipole moment :      0.08177346
  |   Hirshfeld second moments:      0.11731393       0.00000000       0.00000000
  |                                  0.00000000       0.11731393       0.00000000
  |                                  0.00000000       0.00000000       0.11727456
  ----------------------------------------------------------------------


  Total energy components:
  | Sum of eigenvalues            :          -0.75633657 Ha         -20.58096524 eV
  | XC energy correction          :          -0.68485031 Ha         -18.63572521 eV
  | XC potential correction       :           0.87917256 Ha          23.92350252 eV
  | Free-atom electrostatic energy:          -0.35631508 Ha          -9.69582653 eV
  | Hartree energy correction     :          -0.24835398 Ha          -6.75805571 eV
  | van der Waals energy corr.    :          -0.00000019 Ha          -0.00000515 eV
  | Entropy correction            :           0.00000000 Ha           0.00000000 eV
  | ---------------------------
  | Total energy                  :          -1.16668357 Ha         -31.74707532 eV
  | Total energy, T -> 0          :          -1.16668357 Ha         -31.74707532 eV  <-- do not rely on this value for anything but (periodic) metals
  | Electronic free energy        :          -1.16668357 Ha         -31.74707532 eV

  Derived energy quantities:
  | Kinetic energy                :           1.12287321 Ha          30.55493466 eV
  | Electrostatic energy          :          -1.60470628 Ha         -43.66627962 eV
  | Energy correction for multipole
  | error in Hartree potential    :          -0.00009711 Ha          -0.00264239 eV
  | Sum of eigenvalues per atom                           :         -10.29048262 eV
  | Total energy (T->0) per atom                          :         -15.87353766 eV  <-- do not rely on this value for anything but (periodic) metals
  | Electronic free energy per atom                       :         -15.87353766 eV
  Timings for VdW correction (Tkatchenko-Scheffler 2009 or later):
  | CPU time:        0.003 s, Wall clock time:        0.002 s.

  Energy and forces in a compact form:
  | Total energy uncorrected      :         -0.317470753225864E+02 eV
  | Total energy corrected        :         -0.317470753225864E+02 eV  <-- do not rely on this value for anything but (periodic) metals
  | Electronic free energy        :         -0.317470753225864E+02 eV

  ------------------------------------ 
  Start decomposition of the XC Energy 
  ------------------------------------ 
  Hartree-Fock part   :          0.000000000 Ha              0.000000000 eV
  ------------------------------------ 
  X Energy            :         -0.642024262 Ha            -17.470369047 eV
  C Energy GGA        :         -0.042826052 Ha             -1.165356160 eV
  Total XC Energy     :         -0.684850314 Ha            -18.635725207 eV
  LDA X and C from self-consistent density 
  X Energy LDA        :         -0.561297111 Ha            -15.273671496 eV
  C Energy LDA        :         -0.094127461 Ha             -2.561338525 eV
  ------------------------------------ 
  End decomposition of the XC Energy 
  ------------------------------------ 

------------------------------------------------------------------------------
  Final output of selected total energy values:

  The following output summarizes some interesting total energy values
  at the end of a run (AFTER all relaxation, molecular dynamics, etc.).

  | Total energy of the DFT / Hartree-Fock s.c.f. calculation      :            -31.747075323 eV
  | Final zero-broadening corrected energy (caution - metals only) :            -31.747075323 eV
  | For reference only, the value of 1 Hartree used in FHI-aims is :             27.211384500 eV

  Before relying on these values, please be sure to understand exactly which
  total energy value is referred to by a given number. Different objects may
  all carry the same name 'total energy'. Definitions:

  Total energy of the DFT / Hartree-Fock s.c.f. calculation:
  | Note that this energy does not include ANY quantities calculated after the
  | s.c.f. cycle, in particular not ANY RPA, MP2, etc. many-body perturbation terms.

  Final zero-broadening corrected energy:
  | For metallic systems only, a broadening of the occupation numbers at the Fermi
  | level can be extrapolated back to zero broadening by an electron-gas inspired
  | formula. For all systems that are not real metals, this value can be
  | meaningless and should be avoided.

------------------------------------------------------------------------------

------------------------------------------------------------
          Leaving FHI-aims.
          Date     :  20220120, Time     :  153800.550

          Computational steps:
          | Number of self-consistency cycles          :           31

          Detailed time accounting                     :  max(cpu_time)    wall_clock(cpu1)
          | Total time                                 :        1.091 s           1.207 s
          | Preparation time                           :        0.079 s           0.079 s
          | Grid partitioning                          :        0.007 s           0.007 s
          | Preloading free-atom quantities on grid    :        0.004 s           0.004 s
          | Free-atom superposition energy             :        0.003 s           0.003 s
          | Total time for integrations                :        0.346 s           0.346 s
          | Total time for solution of K.-S. equations :        0.060 s           0.067 s
          | Total time for density update              :        0.232 s           0.204 s
          | Total time for mixing                      :        0.057 s           0.062 s
          | Total time for Hartree multipole update    :        0.044 s           0.043 s
          | Total time for Hartree multipole sum       :        0.161 s           0.163 s
          | Total time for total energy evaluation     :        0.006 s           0.020 s
          | Total time for scaled ZORA corrections     :        0.000 s           0.000 s
          | Total time for vdW correction              :        0.003 s           0.002 s

          Have a nice day.
------------------------------------------------------------
