  MPI-parallelism will be employed.
------------------------------------------------------------
          Invoking FHI-aims ...
          Version 052014
          Git rev. (modified): 096c982 Merge branch master of fhiaims:/pub/localo[...]
          Compiled on 2016/12/16 at 15:22:01 on host login02.hpc.iitd.ac.in.

          When using FHI-aims, please cite the following reference:

          Volker Blum, Ralf Gehrke, Felix Hanke, Paula Havu,
          Ville Havu, Xinguo Ren, Karsten Reuter, and Matthias Scheffler,
          'Ab Initio Molecular Simulations with Numeric Atom-Centered Orbitals: FHI-aims',
          Computer Physics Communications 180, 2175-2196 (2009)

          For any questions about FHI-aims, please visit the aimsclub website
          with its forums and wiki. Contributions to both the forums and the
          wiki are warmly encouraged - they are for you, and everyone is welcome there.

------------------------------------------------------------

  Date     :  20220120, Time     :  152648.273
  Time zero on CPU 1             :   0.121500000000000E-01  s.
  Internal wall clock time zero  :           411924408.273  s.

  Using        8 parallel tasks.
  Task        0 on host csky029 reporting.
  Task        1 on host csky029 reporting.
  Task        2 on host csky029 reporting.
  Task        3 on host csky029 reporting.
  Task        4 on host csky029 reporting.
  Task        5 on host csky029 reporting.
  Task        6 on host csky029 reporting.
  Task        7 on host csky029 reporting.

  Performing system and environment tests:
  | Environment variable OMP_NUM_THREADS correctly set to 1.
  | Stacksize not measured: no C compiler
  | Checking for scalapack...
  | Testing pdtran()...
  | All pdtran() tests passed.

  Obtaining array dimensions for all initial allocations:
  
  -----------------------------------------------------------------------
  Parsing control.in (first pass over file, find array dimensions only).
  The contents of control.in will be repeated verbatim below
  unless switched off by setting 'verbatim_writeout .false.' .
  in the first line of control.in .
  -----------------------------------------------------------------------
  
    xc               pbe
    spin             collinear
    default_initial_moment hund
    relativistic     atomic_zora scalar 1e-9
    occupation_type  gaussian 0.001
    charge        0
    vdw_correction_hirshfeld
    KS_method        scalapack_fast
    mixer            pulay
    charge_mix_param  0.4
    spin_mix_param    0.6
    sc_accuracy_rho  1E-4
    sc_accuracy_eev  1E-5
    sc_accuracy_etot 1E-5
    sc_iter_limit    100
    empty_states     10
  ################################################################################
  #
  #  FHI-aims code project
  # Volker Blum, Fritz Haber Institute Berlin, 2009
  #
  #  Suggested "tight" defaults for H atom (to be pasted into control.in file)
  #
  ################################################################################
    species        H
  #     global species definitions
      nucleus             1
      mass                1.00794
  #
      l_hartree           6
  #
      cut_pot             4.0  2.0  1.0
      basis_dep_cutoff    1e-4
  #
      radial_base         24 7.0
      radial_multiplier   2
      angular_grids       specified
        division   0.1930   50
        division   0.3175  110
        division   0.4293  194
        division   0.5066  302
        division   0.5626  434
  #      division   0.5922  590
  #      division   0.6227  974
  #      division   0.6868 1202
  #      outer_grid  770
        outer_grid  434
  ################################################################################
  #
  #  Definition of "minimal" basis
  #
  ################################################################################
  #     valence basis states
      valence      1  s   1.
  #     ion occupancy
      ion_occ      1  s   0.5
  ################################################################################
  #
  #  Suggested additional basis functions. For production calculations,
  #  uncomment them one after another (the most important basis functions are
  #  listed first).
  #
  #  Basis constructed for dimers: 0.5 A, 0.7 A, 1.0 A, 1.5 A, 2.5 A
  #
  ################################################################################
  #  "First tier" - improvements: -1014.90 meV to -62.69 meV
       hydro 2 s 2.1
       hydro 2 p 3.5
  #  "Second tier" - improvements: -12.89 meV to -1.83 meV
       hydro 1 s 0.85
       hydro 2 p 3.7
       hydro 2 s 1.2
       hydro 3 d 7
  #  "Third tier" - improvements: -0.25 meV to -0.12 meV
  #     hydro 4 f 11.2
  #     hydro 3 p 4.8
  #     hydro 4 d 9
  #     hydro 3 s 3.2
  ################################################################################
  #
  # For methods that use the localized form of the "resolution of identity" for
  # the two-electron Coulomb operator (RI_method LVL), particularly Hartree-Fock and
  # hybrid density functional calculations, the highest accuracy can be obtained by
  # uncommenting the line beginning with "for_aux"  below, thus adding an extra g radial
  # function to the construction of the product basis set for the expansion.
  # See Ref. New J. Phys. 17, 093020 (2015) for more information, particularly Figs. 1 and 6.
  #
  ################################################################################
  #
  # for_aux hydro 5 g 6.0
  
  -----------------------------------------------------------------------
  Completed first pass over input file control.in .
  -----------------------------------------------------------------------
  
  
  -----------------------------------------------------------------------
  Parsing geometry.in (first pass over file, find array dimensions only).
  The contents of geometry.in will be repeated verbatim below
  unless switched off by setting 'verbatim_writeout .false.' .
  in the first line of geometry.in .
  -----------------------------------------------------------------------
  
  atom 0 0 0 H
  atom 0 0 0.6 H
  
  -----------------------------------------------------------------------
  Completed first pass over input file geometry.in .
  -----------------------------------------------------------------------
  

  Basic array size parameters:
  | Number of species                 :        1
  | Number of atoms                   :        2
  | Max. basis fn. angular momentum   :        2
  | Max. atomic/ionic basis occupied n:        1
  | Max. number of basis fn. types    :        2
  | Max. radial fns per species/type  :        6
  | Max. logarithmic grid size        :     1131
  | Max. radial integration grid size :       49
  | Max. angular integration grid size:      434
  | Max. angular grid division number :        8
  | Radial grid for Hartree potential :     1131
  | Number of spin channels           :        2

------------------------------------------------------------
          Reading file control.in.
------------------------------------------------------------
  XC: Using PBE gradient-corrected functionals.
  Spin treatment: Spin density functional theory - collinear spins.
  Initial spin moment per atom set according to Hund's rules.
  Scalar relativistic treatment of kinetic energy: on-site free-atom approximation to ZORA.
  Occupation type: Gaussian broadening, width =   0.100000E-02 eV.
  Charge =   0.000000E+00: Neutral system requested explicitly.
  Using non-empirical van der Waals correction (Hirshfeld partitioning):
  Kohn-Sham eigenvalues and eigenfunctions calculated by the ELPA eigensolver library.
  Using pulay charge density mixing.
  Charge density mixing - mixing parameter:     0.4000
  Spin density mixing - mixing parameter:     0.6000
  Convergence accuracy of self-consistent charge density: 0.1000E-03
  Convergence accuracy of sum of eigenvalues: 0.1000E-04
  Convergence accuracy of total energy: 0.1000E-04
  Maximum number of s.-c. iterations  :   100
  Number of empty states per atom:       10
 
  Reading configuration options for species H                   .
  | Found nuclear charge :   1.0000
  | Found atomic mass :    1.00794000000000      amu
  | Found l_max for Hartree potential  :   6
  | Found cutoff potl. onset [A], width [A], scale factor :    4.00000    2.00000    1.00000
  | Threshold for basis-dependent cutoff potential is   0.100000E-03
  | Found data for basic radial integration grid :    24 points, outermost radius =    7.000 A
  | Found multiplier for basic radial grid :   2
  | Found angular grid specification: user-specified.
  | Specified grid contains     6 separate shells.
  | Check grid settings after all constraints further below.
  | Found free-atom valence shell :  1 s   1.000
  | No ionic wave fns used. Skipping ion_occ.
  | Found hydrogenic basis function :  2 s   2.100
  | Found hydrogenic basis function :  2 p   3.500
  | Found hydrogenic basis function :  1 s   0.850
  | Found hydrogenic basis function :  2 p   3.700
  | Found hydrogenic basis function :  2 s   1.200
  | Found hydrogenic basis function :  3 d   7.000
  Species H                   : Missing cutoff potential type.
  Defaulting to exp(1/x)/(1-x)^2 type cutoff potential.
  Species H : No 'logarithmic' tag. Using default grid for free atom:
  | Default logarithmic grid data [bohr] : 0.1000E-03 0.1000E+03 0.1012E+01
  Species H : On-site basis accuracy parameter (for Gram-Schmidt orthonormalisation) not specified.
  Using default value basis_acc =  0.1000000E-03.
  Species H                   : Using default innermost maximum threshold i_radial=  2 for radial functions.
  Species H                   : Default cutoff onset for free atom density etc. : 0.40000000E+01 AA.
  Species H                   : Basic radial grid will be enhanced according to radial_multiplier =   2, to contain    49 grid points.
 
  Finished reading input file 'control.in'. Consistency checks are next.
 
  Target number of points in a grid batch is not set. Defaulting to  100
  Method for grid partitioning is not set. Defaulting to parallel hash+maxmin partitioning.
  Batch size limit is not set. Defaulting to    200
  By default, will store active basis functions for each batch.
  If in need of memory, prune_basis_once .false. can be used to disable this option.
  communication_type for Hartree potential was not specified.
  Defaulting to calc_hartree .
  Pulay mixer: Number of relevant iterations not set.
  Defaulting to    8 iterations.
  Pulay mixer: Number of initial linear mixing iterations not set.
  Defaulting to    0 iterations.
  Work space size for distributed Hartree potential not set.
  Defaulting to   0.200000E+03 MB.
  Algorithm-dependent basis array size parameters:
  | n_max_pulay                         :        8
  Calculation of forces was not defined in control.in. No forces will be calculated.
  Geometry relaxation not requested: no relaxation will be performed.
  No accuracy limit for integral partition fn. given. Defaulting to 0.1000E-14.
  No threshold value for u(r) in integrations given. Defaulting to 0.1000E-05.
  No accuracy for occupation numbers given. Defaulting to 0.1000E-07.
  No threshold value for occupation numbers given. Defaulting to 0.0000E+00.
  No accuracy for fermi level given. Defaulting to 0.1000E-19.
  Maximum # of iterations to find E_F not set. Defaulting to  200.
  Will not use alltoall communication since running on < 1024 CPUs.
  Threshold for basis singularities not set.
  Default threshold for basis singularities: 0.1000E-04
  partition_type (choice of integration weights) for integrals was not specified.
  | Using a version of the partition function of Stratmann and coworkers ('stratmann_smoother').
  | At each grid point, the set of atoms used to build the partition table is smoothly restricted to
  | only those atoms whose free-atom density would be non-zero at that grid point.
  Partitioning for Hartree potential was not defined. Using partition_type for integrals.
  | Adjusted default value of keyword multip_moments_threshold to:       0.10000000E-11
  | This value may affect high angular momentum components of the Hartree potential in periodic systems.
  No q(lm)/r^(l+1) cutoff set for long-range Hartree potential.
  | Using default value of  0.100000E-09 .
  | Verify using the multipole_threshold keyword.
  Defaulting to new monopole extrapolation.
  Density update method: automatic selection selected.
------------------------------------------------------------


------------------------------------------------------------
          Reading geometry description geometry.in.
------------------------------------------------------------
  Input structure read successfully.
  The structure contains        2 atoms,  and a total of          2.000 electrons.

  Input geometry:
  | No unit cell requested.
  | Atomic structure:
  |       Atom                x [A]            y [A]            z [A]
  |    1: Species H              0.000000         0.000000         0.000000
  |    2: Species H              0.000000         0.000000         0.600000
  |

  | The smallest distance between any two atoms is         0.60000000 AA.
  |
  | The first atom of this pair is atom number                      1 .
  | The second atom of this pair is atom number                     2 .

  Initial moments and charges:
  |  Atom   Moment         Charge        Species
  |     1  (Hund's rule)   0.000000E+00   H
  |     2  (Hund's rule)   0.000000E+00   H

  Structure-dependent array size parameters: 
  | Number of distinct atom types in initial rho :        1
  | Maximum number of distinct radial functions  :        7
  | Maximum number of basis functions            :       30
  | Number of Kohn-Sham states (occupied + empty):       11
------------------------------------------------------------

------------------------------------------------------------
          Preparing all fixed parts of the calculation.
------------------------------------------------------------
  Determining machine precision:
    2.225073858507201E-308
  Setting up grids for atomic and cluster calculations.

  Creating wave function, potential, and density for free atoms.

  Species: H

  List of occupied orbitals and eigenvalues:
    n    l              occ      energy [Ha]    energy [eV]
    1    0           1.0000        -0.238386        -6.4868

  Spin-polarized or charged system:
  Charge density initialized according to selected moments and charges.

  Creating spin-polarized density from free atoms.

  Species: H
  Charge:   0.000000
  applying Hund's rules ...

  List of occupied orbitals and eigenvalues:
    n    l      energy [Ha]    energy [eV]    occupation
  Spin-up
    1    0        -0.278991        -7.5917     1.00000000
  Spin-down
    1    0         0.090850         2.4721     0.00000000

  Creating fixed part of basis set: Ionic, confined, hydrogenic.
 
  H                    hydrogenic:
 
  List of hydrogenic basis orbitals: 
    n    l      effective z      eigenvalue [eV]  inner max. [A]     outer max. [A]     outer radius [A]   
    2    0         2.100000       -14.9965           0.193243           1.317208           5.373006
    2    1         3.500000       -41.6672           0.602369           0.602369           4.056063
    1    0         0.850000        -9.8292           0.624871           0.624871           5.373006
    2    1         3.700000       -46.5653           0.573622           0.573622           3.910002
    2    0         1.200000        -4.5995           0.334980           2.228188           5.505995
    3    2         7.000000       -74.0753           0.680699           0.680699           3.769201
 

  Adding cutoff potential to free-atom effective potential.
  Creating atomic-like basis functions for current effective potential.

  Species H                   :

  List of atomic basis orbitals and eigenvalues:
    n    l      energy [Ha]    energy [eV]    outer radius [A]
    1    0        -0.238386        -6.4868       5.373006

  Assembling full basis from fixed parts.
  | Species H :   atomic orbital   1 s accepted.
  | Species H :    hydro orbital   2 s accepted.
  | Species H :    hydro orbital   1 s accepted.
  | Species H :    hydro orbital   2 s accepted.
  | Species H :    hydro orbital   2 p accepted.
  | Species H :    hydro orbital   2 p accepted.
  | Species H :    hydro orbital   3 d accepted.
 
  Basis size parameters after reduction:
  | Total number of radial functions:        7
  | Total number of basis functions :       30
 
  Testing on-site integration grid accuracy.
  |  Species  Function  <phi|h_atom|phi> (log., in eV)  <phi|h_atom|phi> (rad., in eV)
           1        1                 -6.4870767962                 -6.4871688290
           1        2                 13.5032046589                 13.5028982997
           1        3                 32.8195184817                 32.8119941656
           1        4                 33.8513856511                 33.7670005767 ***
           1        5                 28.8544614965                 28.8544615203
           1        6                 59.6326952547                 59.6327656460
           1        7                 60.2719308513                 60.2719305949
 * Note: Onsite integrals marked "***" above are less accurate than
 * onsite_accuracy_threshold =    0.03000 eV. Usually, this is harmless.
 * When in doubt, tighten the "radial" and/or "radial_multiplier" flags to check.

  Preparing densities etc. for the partition functions (integrals / Hartree potential).

  Preparations completed.
  max(cpu_time)          :      0.087 s.
  Wall clock time (cpu1) :      0.083 s.
------------------------------------------------------------

------------------------------------------------------------
          Begin self-consistency loop: Initialization.

          Date     :  20220120, Time     :  152648.458
------------------------------------------------------------

  Initializing index lists of integration centers etc. from given atomic structure:
  | Number of centers in hartree potential         :         2
  | Number of centers in hartree multipole         :         2
  | Number of centers in electron density summation:         2
  | Number of centers in basis integrals           :         2
  | Number of centers in integrals                 :         2
  Using modified Scalapack Eigenvalue solver (ELPA)
  * Using 8 tasks for Scalapack Eigenvalue solver.
  Detailed listing of tasks and assigned k-points:
  (for non-periodic systems, the "k-point" denotes an internal label only)
   Task     0 k-point     1 on csky029
   Task     1 k-point     1 on csky029
   Task     2 k-point     1 on csky029
   Task     3 k-point     1 on csky029
   Task     4 k-point     1 on csky029
   Task     5 k-point     1 on csky029
   Task     6 k-point     1 on csky029
   Task     7 k-point     1 on csky029
  Tasks:     8 split into      4 X      2 BLACS grid
  Calculating blocksize based on n_basis =           30 max_nprow =            4 max_npcol =            2
  Scalapack blocksize set to:            4
  Required Scalapack workspace - INTEGER:            1 REAL:             1
  Partitioning the integration grid into batches with parallel hashing+maxmin method.
  | Number of batches:      446
  | Maximal batch size:     196
  | Minimal batch size:      49
  | Average batch size:      64.798
  | Standard deviation of batch sizes:      18.380

  Integration load balanced across     8 MPI tasks.
  Work distribution over tasks is as follows:
  Task     0 has       3678 integration points.
  Task     1 has       3660 integration points.
  Task     2 has       3588 integration points.
  Task     3 has       3585 integration points.
  Task     4 has       3587 integration points.
  Task     5 has       3597 integration points.
  Task     6 has       3579 integration points.
  Task     7 has       3626 integration points.
  Initializing partition tables, free-atom densities, potentials, etc. across the integration grid (initialize_grid_storage).
  | initialize_grid_storage: Actual outermost partition radius vs. multipole_radius_free
  | (-- VB: in principle, multipole_radius_free should be larger, hence this output)
  | Species        1: outer_partition_radius =              6.000000000000000 AA, multipole_radius_free =              6.071692442739658 AA.
  | Original list of interatomic distances with           2 x          2 entries is created.
  | Net number of integration points:    28900
  | of which are non-zero points    :    26248
  Obtaining max. number of non-zero basis functions in each batch (get_n_compute_maxes).
  | Maximal number of non-zero basis functions:       30 in task     0
  | Maximal number of non-zero basis functions:       30 in task     1
  | Maximal number of non-zero basis functions:       30 in task     2
  | Maximal number of non-zero basis functions:       30 in task     3
  | Maximal number of non-zero basis functions:       30 in task     4
  | Maximal number of non-zero basis functions:       30 in task     5
  | Maximal number of non-zero basis functions:       30 in task     6
  | Maximal number of non-zero basis functions:       30 in task     7
  Selecting the method for density update.
  Loop over occupied states selected for charge density update.
  Integrating Hamiltonian matrix: batch-based integration.
  Time summed over all CPUs for integration: real work        0.084 s, elapsed        0.091 s
  Integrating overlap matrix.
  Time summed over all CPUs for integration: real work        0.022 s, elapsed        0.026 s
  Deallocating overlap matrix.

  Updating Kohn-Sham eigenvalues, eigenvectors, occupation numbers, and Fermi level.
  Solving generalized eigenproblem
  Solving real symmetric generalised eigenvalue problem by standard ScaLAPACK.
  Transforming overlap matrix with ScaLAPACK and checking for singularities.
  : Overlap matrix is nonsingular, using Cholesky decomposition
  | Lowest eigenvalue:  0.113487E-03
  Factoring overlap matrix with Cholesky decomposition
  Using Cholesky factor for transformation
  Using 1-stage real ELPA solver
  Solving real symmetric generalised eigenvalue problem by standard ScaLAPACK.
  Using Cholesky factor for transformation
  Using 1-stage real ELPA solver
  Determining occupation numbers for Kohn-Sham eigenstates.
  | Chemical potential (Fermi level) in eV                 : -.59018590E+00
  | Error in electron count due to remaining E_F inaccuracy: 0.00000000E+00
  | Maximum occupation number of highest empty state:  0.00E+00

  Writing Kohn-Sham eigenvalues.

  Spin-up eigenvalues:

  State    Occupation    Eigenvalue [Ha]    Eigenvalue [eV]
      1       1.00000          -0.664597          -18.08459
      2       1.00000          -0.028657           -0.77980
      3       0.00000           0.003131            0.08520
      4       0.00000           0.122282            3.32746
      5       0.00000           0.205963            5.60454
      6       0.00000           0.205963            5.60454
      7       0.00000           0.281830            7.66899
      8       0.00000           0.500721           13.62532
      9       0.00000           0.690934           18.80128
     10       0.00000           0.690934           18.80128
     11       0.00000           0.693670           18.87571

  Spin-down eigenvalues:

  State    Occupation    Eigenvalue [Ha]    Eigenvalue [eV]
      1       0.00000           0.099184            2.69893
      2       0.00000           0.115027            3.13005
      3       0.00000           0.503615           13.70406
      4       0.00000           0.531249           14.45603
      5       0.00000           1.170166           31.84183
      6       0.00000           1.170166           31.84183
      7       0.00000           1.178796           32.07667
      8       0.00000           1.506152           40.98448
      9       0.00000           1.506152           40.98448
     10       0.00000           1.573794           42.82511
     11       0.00000           1.675543           45.59384

  Current spin moment of the entire structure :
  | N = N_up - N_down :    2.00
  | S                 :    1.00
  | J                 :    3.00

  Highest occupied state (VBM) at     -0.77980123 eV
  | Occupation number:      1.00000000
  | Spin channel:        1

  Lowest unoccupied state (CBM) at     0.08520048 eV
  | Occupation number:      0.00000000
  | Spin channel:        1

  Overall HOMO-LUMO gap:      0.86500171 eV.
  Calculating total energy contributions from superposition of free atom densities.

  Total energy components:
  | Sum of eigenvalues            :          -0.69325379 Ha         -18.86439535 eV
  | XC energy correction          :          -0.70131115 Ha         -19.08364723 eV
  | XC potential correction       :           0.90530130 Ha          24.63450181 eV
  | Free-atom electrostatic energy:          -0.20436240 Ha          -5.56098386 eV
  | Hartree energy correction     :           0.00000000 Ha           0.00000000 eV
  | van der Waals energy corr.    :           0.00000000 Ha           0.00000000 eV
  | Entropy correction            :           0.00000000 Ha           0.00000000 eV
  | ---------------------------
  | Total energy                  :          -0.69362603 Ha         -18.87452463 eV
  | Total energy, T -> 0          :          -0.69362603 Ha         -18.87452463 eV  <-- do not rely on this value for anything but (periodic) metals
  | Electronic free energy        :          -0.69362603 Ha         -18.87452463 eV

  Derived energy quantities:
  | Kinetic energy                :           1.24938811 Ha          33.99758013 eV
  | Electrostatic energy          :          -1.24170299 Ha         -33.78845754 eV
  | Energy correction for multipole
  | error in Hartree potential    :           0.00000000 Ha           0.00000000 eV
  | Sum of eigenvalues per atom                           :          -9.43219768 eV
  | Total energy (T->0) per atom                          :          -9.43726232 eV  <-- do not rely on this value for anything but (periodic) metals
  | Electronic free energy per atom                       :          -9.43726232 eV
  Initialize hartree_potential_storage
  Max. number of atoms included in rho_multipole:            2

  End scf initialization - timings             :  max(cpu_time)    wall_clock(cpu1)
  | Time for scf. initialization               :        0.045 s           0.045 s
  | Boundary condition initialization          :        0.000 s           0.000 s
  | Integration                                :        0.015 s           0.015 s
  | Solution of K.-S. eqns.                    :        0.009 s           0.009 s
  | Grid partitioning                          :        0.007 s           0.007 s
  | Preloading free-atom quantities on grid    :        0.005 s           0.003 s
  | Free-atom superposition energy             :        0.002 s           0.003 s
  | Total energy evaluation                    :        0.000 s           0.001 s
------------------------------------------------------------

------------------------------------------------------------
          Begin self-consistency iteration #    1

  Date     :  20220120, Time     :  152648.503
------------------------------------------------------------
  Evaluating new KS density.
  Integration grid: deviation in total charge (<rho> - N_e) =   3.264552E-07
  | <rho_up-rho_dn> = N_up-N_dn =      2.0000; <|rho_up-rho_dn|> =      2.1581
  Pulay mixing of updated and previous charge densities.

  Evaluating partitioned Hartree potential by multipole expansion.
  | Analytical far-field extrapolation by fixed multipoles:
  | Hartree multipole sum: apparent total charge =  -0.131450E-04
  Summing up the Hartree potential.
  Time summed over all CPUs for potential: real work        0.037 s, elapsed        0.042 s
  | RMS charge density error from multipole expansion :   0.831253E-03

  Integrating Hamiltonian matrix: batch-based integration.
  Time summed over all CPUs for integration: real work        0.070 s, elapsed        0.075 s

  Updating Kohn-Sham eigenvalues, eigenvectors, occupation numbers, and Fermi level.
  Solving generalized eigenproblem
  Solving real symmetric generalised eigenvalue problem by standard ScaLAPACK.
  Using Cholesky factor for transformation
  Using 1-stage real ELPA solver
  Solving real symmetric generalised eigenvalue problem by standard ScaLAPACK.
  Using Cholesky factor for transformation
  Using 1-stage real ELPA solver
  Determining occupation numbers for Kohn-Sham eigenstates.
  | Chemical potential (Fermi level) in eV                 : -.67468300E+01
  | Error in electron count due to remaining E_F inaccuracy: 0.00000000E+00
  | Maximum occupation number of highest empty state:  0.00E+00

  Writing Kohn-Sham eigenvalues.

  Spin-up eigenvalues:

  State    Occupation    Eigenvalue [Ha]    Eigenvalue [eV]
      1       1.00000          -0.544337          -14.81215
      2       0.00000           0.061599            1.67620
      3       0.00000           0.064061            1.74320
      4       0.00000           0.175472            4.77483
      5       0.00000           0.226634            6.16702
      6       0.00000           0.226634            6.16702
      7       0.00000           0.345159            9.39225
      8       0.00000           0.572075           15.56695
      9       0.00000           0.752118           20.46616
     10       0.00000           0.752118           20.46616
     11       0.00000           0.814222           22.15611

  Spin-down eigenvalues:

  State    Occupation    Eigenvalue [Ha]    Eigenvalue [eV]
      1       1.00000          -0.328303           -8.93357
      2       0.00000           0.082017            2.23178
      3       0.00000           0.089600            2.43814
      4       0.00000           0.246869            6.71766
      5       0.00000           0.337760            9.19092
      6       0.00000           0.337760            9.19092
      7       0.00000           0.403754           10.98671
      8       0.00000           0.693028           18.85825
      9       0.00000           0.841611           22.90141
     10       0.00000           0.841611           22.90141
     11       0.00000           0.885334           24.09117

  Current spin moment of the entire structure :
  | N = N_up - N_down :    0.00
  | S                 :    0.00
  | J                 :    1.00

  Highest occupied state (VBM) at     -8.93357274 eV
  | Occupation number:      1.00000000
  | Spin channel:        2

  Lowest unoccupied state (CBM) at     1.67619525 eV
  | Occupation number:      0.00000000
  | Spin channel:        1

  Overall HOMO-LUMO gap:     10.60976799 eV.

  Total energy components:
  | Sum of eigenvalues            :          -0.87263942 Ha         -23.74572684 eV
  | XC energy correction          :          -0.48316709 Ha         -13.14764533 eV
  | XC potential correction       :           0.62152859 Ha          16.91265349 eV
  | Free-atom electrostatic energy:          -0.20436240 Ha          -5.56098386 eV
  | Hartree energy correction     :           0.03627666 Ha           0.98713807 eV
  | van der Waals energy corr.    :           0.00000000 Ha           0.00000000 eV
  | Entropy correction            :           0.00000000 Ha           0.00000000 eV
  | ---------------------------
  | Total energy                  :          -0.90236366 Ha         -24.55456448 eV
  | Total energy, T -> 0          :          -0.90236366 Ha         -24.55456448 eV  <-- do not rely on this value for anything but (periodic) metals
  | Electronic free energy        :          -0.90236366 Ha         -24.55456448 eV

  Derived energy quantities:
  | Kinetic energy                :           0.87581694 Ha          23.83219148 eV
  | Electrostatic energy          :          -1.29501351 Ha         -35.23911063 eV
  | Energy correction for multipole
  | error in Hartree potential    :          -0.00014198 Ha          -0.00386354 eV
  | Sum of eigenvalues per atom                           :         -11.87286342 eV
  | Total energy (T->0) per atom                          :         -12.27728224 eV  <-- do not rely on this value for anything but (periodic) metals
  | Electronic free energy per atom                       :         -12.27728224 eV

  Self-consistency convergence accuracy:
  | Change of charge/spin density : 0.6932E-01 0.6932E-01
  | Change of sum of eigenvalues  : -.4881E+01 eV
  | Change of total energy        : -.5680E+01 eV

  End self-consistency iteration #     1       :  max(cpu_time)    wall_clock(cpu1)
  | Time for this iteration                    :        0.029 s           0.029 s
  | Charge density update                      :        0.007 s           0.006 s
  | Density mixing                             :        0.001 s           0.001 s
  | Hartree multipole update                   :        0.002 s           0.002 s
  | Hartree multipole summation                :        0.006 s           0.006 s
  | Integration                                :        0.010 s           0.010 s
  | Solution of K.-S. eqns.                    :        0.002 s           0.002 s
  | Total energy evaluation                    :        0.000 s           0.001 s
------------------------------------------------------------

------------------------------------------------------------
          Begin self-consistency iteration #    2

  Date     :  20220120, Time     :  152648.534
------------------------------------------------------------
  Evaluating new KS density.
  Integration grid: deviation in total charge (<rho> - N_e) =   1.958731E-07
  | <rho_up-rho_dn> = N_up-N_dn =     -2.0000; <|rho_up-rho_dn|> =      2.0000
  Pulay mixing of updated and previous charge densities.

  Evaluating partitioned Hartree potential by multipole expansion.
  | Analytical far-field extrapolation by fixed multipoles:
  | Hartree multipole sum: apparent total charge =  -0.129050E-04
  Summing up the Hartree potential.
  Time summed over all CPUs for potential: real work        0.033 s, elapsed        0.033 s
  | RMS charge density error from multipole expansion :   0.812181E-03

  Integrating Hamiltonian matrix: batch-based integration.
  Time summed over all CPUs for integration: real work        0.073 s, elapsed        0.084 s

  Updating Kohn-Sham eigenvalues, eigenvectors, occupation numbers, and Fermi level.
  Solving generalized eigenproblem
  Solving real symmetric generalised eigenvalue problem by standard ScaLAPACK.
  Using Cholesky factor for transformation
  Using 1-stage real ELPA solver
  Solving real symmetric generalised eigenvalue problem by standard ScaLAPACK.
  Using Cholesky factor for transformation
  Using 1-stage real ELPA solver
  Determining occupation numbers for Kohn-Sham eigenstates.
  | Chemical potential (Fermi level) in eV                 : -.91907780E+01
  | Error in electron count due to remaining E_F inaccuracy: 0.00000000E+00
  | Maximum occupation number of highest empty state:  0.00E+00

  Current spin moment of the entire structure :
  | N = N_up - N_down :    0.00
  | S                 :    0.00
  | J                 :    1.00

  Highest occupied state (VBM) at    -10.62091999 eV
  | Occupation number:      1.00000000
  | Spin channel:        2

  Lowest unoccupied state (CBM) at     1.30554542 eV
  | Occupation number:      0.00000000
  | Spin channel:        1

  Overall HOMO-LUMO gap:     11.92646541 eV.

  Total energy components:
  | Sum of eigenvalues            :          -1.04296751 Ha         -28.38058981 eV
  | XC energy correction          :          -0.58673285 Ha         -15.96581326 eV
  | XC potential correction       :           0.75736542 Ha          20.60896173 eV
  | Free-atom electrostatic energy:          -0.20436240 Ha          -5.56098386 eV
  | Hartree energy correction     :           0.03106210 Ha           0.84524287 eV
  | van der Waals energy corr.    :           0.00000000 Ha           0.00000000 eV
  | Entropy correction            :           0.00000000 Ha           0.00000000 eV
  | ---------------------------
  | Total energy                  :          -1.04563523 Ha         -28.45318233 eV
  | Total energy, T -> 0          :          -1.04563523 Ha         -28.45318233 eV  <-- do not rely on this value for anything but (periodic) metals
  | Electronic free energy        :          -1.04563523 Ha         -28.45318233 eV

  Derived energy quantities:
  | Kinetic energy                :           0.84276235 Ha          22.93273044 eV
  | Electrostatic energy          :          -1.30166473 Ha         -35.42009951 eV
  | Energy correction for multipole
  | error in Hartree potential    :          -0.00013749 Ha          -0.00374118 eV
  | Sum of eigenvalues per atom                           :         -14.19029491 eV
  | Total energy (T->0) per atom                          :         -14.22659117 eV  <-- do not rely on this value for anything but (periodic) metals
  | Electronic free energy per atom                       :         -14.22659117 eV

  Self-consistency convergence accuracy:
  | Change of charge/spin density : 0.1308E+00 0.2984E+00
  | Change of sum of eigenvalues  : -.4635E+01 eV
  | Change of total energy        : -.3899E+01 eV

  End self-consistency iteration #     2       :  max(cpu_time)    wall_clock(cpu1)
  | Time for this iteration                    :        0.029 s           0.029 s
  | Charge density update                      :        0.007 s           0.007 s
  | Density mixing                             :        0.001 s           0.001 s
  | Hartree multipole update                   :        0.001 s           0.002 s
  | Hartree multipole summation                :        0.005 s           0.004 s
  | Integration                                :        0.011 s           0.011 s
  | Solution of K.-S. eqns.                    :        0.002 s           0.002 s
  | Total energy evaluation                    :        0.000 s           0.000 s
------------------------------------------------------------

------------------------------------------------------------
          Begin self-consistency iteration #    3

  Date     :  20220120, Time     :  152648.564
------------------------------------------------------------
  Evaluating new KS density.
  Integration grid: deviation in total charge (<rho> - N_e) =   1.924272E-07
  | <rho_up-rho_dn> = N_up-N_dn =     -1.9472; <|rho_up-rho_dn|> =      1.9472
  Pulay mixing of updated and previous charge densities.

  Evaluating partitioned Hartree potential by multipole expansion.
  | Analytical far-field extrapolation by fixed multipoles:
  | Hartree multipole sum: apparent total charge =  -0.130140E-04
  Summing up the Hartree potential.
  Time summed over all CPUs for potential: real work        0.036 s, elapsed        0.042 s
  | RMS charge density error from multipole expansion :   0.765615E-03

  Integrating Hamiltonian matrix: batch-based integration.
  Time summed over all CPUs for integration: real work        0.069 s, elapsed        0.074 s

  Updating Kohn-Sham eigenvalues, eigenvectors, occupation numbers, and Fermi level.
  Solving generalized eigenproblem
  Solving real symmetric generalised eigenvalue problem by standard ScaLAPACK.
  Using Cholesky factor for transformation
  Using 1-stage real ELPA solver
  Solving real symmetric generalised eigenvalue problem by standard ScaLAPACK.
  Using Cholesky factor for transformation
  Using 1-stage real ELPA solver
  Determining occupation numbers for Kohn-Sham eigenstates.
  | Chemical potential (Fermi level) in eV                 : -.81088004E+01
  | Error in electron count due to remaining E_F inaccuracy: 0.00000000E+00
  | Maximum occupation number of highest empty state:  0.00E+00

  Current spin moment of the entire structure :
  | N = N_up - N_down :    0.00
  | S                 :    0.00
  | J                 :    1.00

  Highest occupied state (VBM) at     -9.97807009 eV
  | Occupation number:      1.00000000
  | Spin channel:        2

  Lowest unoccupied state (CBM) at     1.31832949 eV
  | Occupation number:      0.00000000
  | Spin channel:        1

  Overall HOMO-LUMO gap:     11.29639957 eV.

  Total energy components:
  | Sum of eigenvalues            :          -0.96909367 Ha         -26.37038047 eV
  | XC energy correction          :          -0.54091640 Ha         -14.71908416 eV
  | XC potential correction       :           0.69711441 Ha          18.96944821 eV
  | Free-atom electrostatic energy:          -0.20436240 Ha          -5.56098386 eV
  | Hartree energy correction     :           0.03884639 Ha           1.05706412 eV
  | van der Waals energy corr.    :           0.00000000 Ha           0.00000000 eV
  | Entropy correction            :           0.00000000 Ha           0.00000000 eV
  | ---------------------------
  | Total energy                  :          -0.97841167 Ha         -26.62393616 eV
  | Total energy, T -> 0          :          -0.97841167 Ha         -26.62393616 eV  <-- do not rely on this value for anything but (periodic) metals
  | Electronic free energy        :          -0.97841167 Ha         -26.62393616 eV

  Derived energy quantities:
  | Kinetic energy                :           0.84533424 Ha          23.00271491 eV
  | Electrostatic energy          :          -1.28282951 Ha         -34.90756691 eV
  | Energy correction for multipole
  | error in Hartree potential    :          -0.00012683 Ha          -0.00345127 eV
  | Sum of eigenvalues per atom                           :         -13.18519023 eV
  | Total energy (T->0) per atom                          :         -13.31196808 eV  <-- do not rely on this value for anything but (periodic) metals
  | Electronic free energy per atom                       :         -13.31196808 eV

  Self-consistency convergence accuracy:
  | Change of charge/spin density : 0.1938E+00 0.2780E+00
  | Change of sum of eigenvalues  : 0.2010E+01 eV
  | Change of total energy        : 0.1829E+01 eV

  End self-consistency iteration #     3       :  max(cpu_time)    wall_clock(cpu1)
  | Time for this iteration                    :        0.028 s           0.027 s
  | Charge density update                      :        0.007 s           0.006 s
  | Density mixing                             :        0.001 s           0.002 s
  | Hartree multipole update                   :        0.001 s           0.001 s
  | Hartree multipole summation                :        0.006 s           0.006 s
  | Integration                                :        0.009 s           0.009 s
  | Solution of K.-S. eqns.                    :        0.002 s           0.002 s
  | Total energy evaluation                    :        0.000 s           0.000 s
------------------------------------------------------------

------------------------------------------------------------
          Begin self-consistency iteration #    4

  Date     :  20220120, Time     :  152648.593
------------------------------------------------------------
  Evaluating new KS density.
  Integration grid: deviation in total charge (<rho> - N_e) =   1.928873E-07
  | <rho_up-rho_dn> = N_up-N_dn =     -1.9519; <|rho_up-rho_dn|> =      1.9519
  Pulay mixing of updated and previous charge densities.

  Evaluating partitioned Hartree potential by multipole expansion.
  | Analytical far-field extrapolation by fixed multipoles:
  | Hartree multipole sum: apparent total charge =  -0.126561E-04
  Summing up the Hartree potential.
  Time summed over all CPUs for potential: real work        0.040 s, elapsed        0.046 s
  | RMS charge density error from multipole expansion :   0.686797E-03

  Integrating Hamiltonian matrix: batch-based integration.
  Time summed over all CPUs for integration: real work        0.069 s, elapsed        0.072 s

  Updating Kohn-Sham eigenvalues, eigenvectors, occupation numbers, and Fermi level.
  Solving generalized eigenproblem
  Solving real symmetric generalised eigenvalue problem by standard ScaLAPACK.
  Using Cholesky factor for transformation
  Using 1-stage real ELPA solver
  Solving real symmetric generalised eigenvalue problem by standard ScaLAPACK.
  Using Cholesky factor for transformation
  Using 1-stage real ELPA solver
  Determining occupation numbers for Kohn-Sham eigenstates.
  | Chemical potential (Fermi level) in eV                 : -.79470579E+01
  | Error in electron count due to remaining E_F inaccuracy: 0.00000000E+00
  | Maximum occupation number of highest empty state:  0.00E+00

  Current spin moment of the entire structure :
  | N = N_up - N_down :    0.00
  | S                 :    0.00
  | J                 :    1.00

  Highest occupied state (VBM) at    -11.93203904 eV
  | Occupation number:      1.00000000
  | Spin channel:        2

  Lowest unoccupied state (CBM) at     0.11417071 eV
  | Occupation number:      0.00000000
  | Spin channel:        1

  Overall HOMO-LUMO gap:     12.04620975 eV.

  Total energy components:
  | Sum of eigenvalues            :          -1.01103934 Ha         -27.51178035 eV
  | XC energy correction          :          -0.50513908 Ha         -13.74553375 eV
  | XC potential correction       :           0.64996852 Ha          17.68654339 eV
  | Free-atom electrostatic energy:          -0.20436240 Ha          -5.56098386 eV
  | Hartree energy correction     :           0.09583015 Ha           2.60767106 eV
  | van der Waals energy corr.    :           0.00000000 Ha           0.00000000 eV
  | Entropy correction            :           0.00000000 Ha           0.00000000 eV
  | ---------------------------
  | Total energy                  :          -0.97474215 Ha         -26.52408350 eV
  | Total energy, T -> 0          :          -0.97474215 Ha         -26.52408350 eV  <-- do not rely on this value for anything but (periodic) metals
  | Electronic free energy        :          -0.97474215 Ha         -26.52408350 eV

  Derived energy quantities:
  | Kinetic energy                :           0.55159290 Ha          15.00960654 eV
  | Electrostatic energy          :          -1.02119597 Ha         -27.78815629 eV
  | Energy correction for multipole
  | error in Hartree potential    :           0.00010392 Ha           0.00282769 eV
  | Sum of eigenvalues per atom                           :         -13.75589018 eV
  | Total energy (T->0) per atom                          :         -13.26204175 eV  <-- do not rely on this value for anything but (periodic) metals
  | Electronic free energy per atom                       :         -13.26204175 eV

  Self-consistency convergence accuracy:
  | Change of charge/spin density : 0.1627E+00 0.2836E+00
  | Change of sum of eigenvalues  : -.1141E+01 eV
  | Change of total energy        : 0.9985E-01 eV

  End self-consistency iteration #     4       :  max(cpu_time)    wall_clock(cpu1)
  | Time for this iteration                    :        0.028 s           0.028 s
  | Charge density update                      :        0.007 s           0.006 s
  | Density mixing                             :        0.002 s           0.002 s
  | Hartree multipole update                   :        0.001 s           0.001 s
  | Hartree multipole summation                :        0.006 s           0.006 s
  | Integration                                :        0.009 s           0.010 s
  | Solution of K.-S. eqns.                    :        0.002 s           0.002 s
  | Total energy evaluation                    :        0.000 s           0.001 s
------------------------------------------------------------

------------------------------------------------------------
          Begin self-consistency iteration #    5

  Date     :  20220120, Time     :  152648.623
------------------------------------------------------------
  Evaluating new KS density.
  Integration grid: deviation in total charge (<rho> - N_e) =   1.672802E-07
  | <rho_up-rho_dn> = N_up-N_dn =     -1.6036; <|rho_up-rho_dn|> =      1.6036
  Pulay mixing of updated and previous charge densities.

  Evaluating partitioned Hartree potential by multipole expansion.
  | Analytical far-field extrapolation by fixed multipoles:
  | Hartree multipole sum: apparent total charge =  -0.122948E-04
  Summing up the Hartree potential.
  Time summed over all CPUs for potential: real work        0.035 s, elapsed        0.047 s
  | RMS charge density error from multipole expansion :   0.474551E-02

  Integrating Hamiltonian matrix: batch-based integration.
  Time summed over all CPUs for integration: real work        0.073 s, elapsed        0.083 s

  Updating Kohn-Sham eigenvalues, eigenvectors, occupation numbers, and Fermi level.
  Solving generalized eigenproblem
  Solving real symmetric generalised eigenvalue problem by standard ScaLAPACK.
  Using Cholesky factor for transformation
  Using 1-stage real ELPA solver
  Solving real symmetric generalised eigenvalue problem by standard ScaLAPACK.
  Using Cholesky factor for transformation
  Using 1-stage real ELPA solver
  Determining occupation numbers for Kohn-Sham eigenstates.
  | Chemical potential (Fermi level) in eV                 : -.17118525E+02
  | Error in electron count due to remaining E_F inaccuracy: 0.00000000E+00
  | Maximum occupation number of highest empty state:  0.00E+00

  Current spin moment of the entire structure :
  | N = N_up - N_down :    0.00
  | S                 :    0.00
  | J                 :    1.00

  Highest occupied state (VBM) at    -18.62720816 eV
  | Occupation number:      1.00000000
  | Spin channel:        2

  Lowest unoccupied state (CBM) at    -1.73743422 eV
  | Occupation number:      0.00000000
  | Spin channel:        1

  Overall HOMO-LUMO gap:     16.88977394 eV.

  Total energy components:
  | Sum of eigenvalues            :          -1.41501474 Ha         -38.50451019 eV
  | XC energy correction          :          -0.63401229 Ha         -17.25235230 eV
  | XC potential correction       :           0.81435200 Ha          22.15964526 eV
  | Free-atom electrostatic energy:          -0.20436240 Ha          -5.56098386 eV
  | Hartree energy correction     :           0.16836608 Ha           4.58147408 eV
  | van der Waals energy corr.    :           0.00000000 Ha           0.00000000 eV
  | Entropy correction            :           0.00000000 Ha           0.00000000 eV
  | ---------------------------
  | Total energy                  :          -1.27067136 Ha         -34.57672700 eV
  | Total energy, T -> 0          :          -1.27067136 Ha         -34.57672700 eV  <-- do not rely on this value for anything but (periodic) metals
  | Electronic free energy        :          -1.27067136 Ha         -34.57672700 eV

  Derived energy quantities:
  | Kinetic energy                :          -0.87637676 Ha         -23.84742500 eV
  | Electrostatic energy          :           0.23971769 Ha           6.52305029 eV
  | Energy correction for multipole
  | error in Hartree potential    :           0.00098210 Ha           0.02672442 eV
  | Sum of eigenvalues per atom                           :         -19.25225510 eV
  | Total energy (T->0) per atom                          :         -17.28836350 eV  <-- do not rely on this value for anything but (periodic) metals
  | Electronic free energy per atom                       :         -17.28836350 eV

  Self-consistency convergence accuracy:
  | Change of charge/spin density : 0.2283E+00 0.2325E+00
  | Change of sum of eigenvalues  : -.1099E+02 eV
  | Change of total energy        : -.8053E+01 eV

  End self-consistency iteration #     5       :  max(cpu_time)    wall_clock(cpu1)
  | Time for this iteration                    :        0.031 s           0.031 s
  | Charge density update                      :        0.007 s           0.007 s
  | Density mixing                             :        0.002 s           0.002 s
  | Hartree multipole update                   :        0.001 s           0.001 s
  | Hartree multipole summation                :        0.007 s           0.007 s
  | Integration                                :        0.010 s           0.011 s
  | Solution of K.-S. eqns.                    :        0.002 s           0.002 s
  | Total energy evaluation                    :        0.000 s           0.001 s
------------------------------------------------------------

------------------------------------------------------------
          Begin self-consistency iteration #    6

  Date     :  20220120, Time     :  152648.656
------------------------------------------------------------
  Evaluating new KS density.
  Integration grid: deviation in total charge (<rho> - N_e) =   8.127707E-08
  | <rho_up-rho_dn> = N_up-N_dn =     -0.5754; <|rho_up-rho_dn|> =      0.8994
  Pulay mixing of updated and previous charge densities.

  Evaluating partitioned Hartree potential by multipole expansion.
  | Analytical far-field extrapolation by fixed multipoles:
  | Hartree multipole sum: apparent total charge =  -0.141619E-04
  Summing up the Hartree potential.
  Time summed over all CPUs for potential: real work        0.034 s, elapsed        0.042 s
  | RMS charge density error from multipole expansion :   0.789798E-02

  Integrating Hamiltonian matrix: batch-based integration.
  Time summed over all CPUs for integration: real work        0.073 s, elapsed        0.082 s

  Updating Kohn-Sham eigenvalues, eigenvectors, occupation numbers, and Fermi level.
  Solving generalized eigenproblem
  Solving real symmetric generalised eigenvalue problem by standard ScaLAPACK.
  Using Cholesky factor for transformation
  Using 1-stage real ELPA solver
  Solving real symmetric generalised eigenvalue problem by standard ScaLAPACK.
  Using Cholesky factor for transformation
  Using 1-stage real ELPA solver
  Determining occupation numbers for Kohn-Sham eigenstates.
  | Chemical potential (Fermi level) in eV                 : -.22837642E+02
  | Error in electron count due to remaining E_F inaccuracy: 0.00000000E+00
  | Maximum occupation number of highest empty state:  0.00E+00

  Current spin moment of the entire structure :
  | N = N_up - N_down :    0.00
  | S                 :    0.00
  | J                 :    1.00

  Highest occupied state (VBM) at    -24.80533558 eV
  | Occupation number:      1.00000000
  | Spin channel:        2

  Lowest unoccupied state (CBM) at    -3.30558865 eV
  | Occupation number:      0.00000000
  | Spin channel:        1

  Overall HOMO-LUMO gap:     21.49974693 eV.

  Total energy components:
  | Sum of eigenvalues            :          -1.86433459 Ha         -50.73112545 eV
  | XC energy correction          :          -0.77056414 Ha         -20.96811717 eV
  | XC potential correction       :           0.99068117 Ha          26.95780616 eV
  | Free-atom electrostatic energy:          -0.20436240 Ha          -5.56098386 eV
  | Hartree energy correction     :           0.05824829 Ha           1.58501661 eV
  | van der Waals energy corr.    :           0.00000000 Ha           0.00000000 eV
  | Entropy correction            :           0.00000000 Ha           0.00000000 eV
  | ---------------------------
  | Total energy                  :          -1.79033168 Ha         -48.71740371 eV
  | Total energy, T -> 0          :          -1.79033168 Ha         -48.71740371 eV  <-- do not rely on this value for anything but (periodic) metals
  | Electronic free energy        :          -1.79033168 Ha         -48.71740371 eV

  Derived energy quantities:
  | Kinetic energy                :          -2.47714055 Ha         -67.40642406 eV
  | Electrostatic energy          :           1.45737302 Ha          39.65713752 eV
  | Energy correction for multipole
  | error in Hartree potential    :           0.00162059 Ha           0.04409863 eV
  | Sum of eigenvalues per atom                           :         -25.36556272 eV
  | Total energy (T->0) per atom                          :         -24.35870185 eV  <-- do not rely on this value for anything but (periodic) metals
  | Electronic free energy per atom                       :         -24.35870185 eV

  Self-consistency convergence accuracy:
  | Change of charge/spin density : 0.7245E+00 0.1899E+00
  | Change of sum of eigenvalues  : -.1223E+02 eV
  | Change of total energy        : -.1414E+02 eV

  End self-consistency iteration #     6       :  max(cpu_time)    wall_clock(cpu1)
  | Time for this iteration                    :        0.031 s           0.030 s
  | Charge density update                      :        0.008 s           0.007 s
  | Density mixing                             :        0.002 s           0.001 s
  | Hartree multipole update                   :        0.002 s           0.002 s
  | Hartree multipole summation                :        0.006 s           0.006 s
  | Integration                                :        0.010 s           0.010 s
  | Solution of K.-S. eqns.                    :        0.002 s           0.003 s
  | Total energy evaluation                    :        0.000 s           0.001 s
------------------------------------------------------------

------------------------------------------------------------
          Begin self-consistency iteration #    7

  Date     :  20220120, Time     :  152648.690
------------------------------------------------------------
  Evaluating new KS density.
  Integration grid: deviation in total charge (<rho> - N_e) =   5.234041E-08
  | <rho_up-rho_dn> = N_up-N_dn =     -0.3460; <|rho_up-rho_dn|> =      1.0935
  Pulay mixing of updated and previous charge densities.

  Evaluating partitioned Hartree potential by multipole expansion.
  | Analytical far-field extrapolation by fixed multipoles:
  | Hartree multipole sum: apparent total charge =  -0.151706E-04
  Summing up the Hartree potential.
  Time summed over all CPUs for potential: real work        0.032 s, elapsed        0.033 s
  | RMS charge density error from multipole expansion :   0.902401E-02

  Integrating Hamiltonian matrix: batch-based integration.
  Time summed over all CPUs for integration: real work        0.071 s, elapsed        0.077 s

  Updating Kohn-Sham eigenvalues, eigenvectors, occupation numbers, and Fermi level.
  Solving generalized eigenproblem
  Solving real symmetric generalised eigenvalue problem by standard ScaLAPACK.
  Using Cholesky factor for transformation
  Using 1-stage real ELPA solver
  Solving real symmetric generalised eigenvalue problem by standard ScaLAPACK.
  Using Cholesky factor for transformation
  Using 1-stage real ELPA solver
  Determining occupation numbers for Kohn-Sham eigenstates.
  | Chemical potential (Fermi level) in eV                 : -.25214919E+02
  | Error in electron count due to remaining E_F inaccuracy: 0.00000000E+00
  | Maximum occupation number of highest empty state:  0.00E+00

  Current spin moment of the entire structure :
  | N = N_up - N_down :    0.00
  | S                 :    0.00
  | J                 :    1.00

  Highest occupied state (VBM) at    -27.43794264 eV
  | Occupation number:      1.00000000
  | Spin channel:        2

  Lowest unoccupied state (CBM) at    -3.98442457 eV
  | Occupation number:      0.00000000
  | Spin channel:        1

  Overall HOMO-LUMO gap:     23.45351807 eV.

  Total energy components:
  | Sum of eigenvalues            :          -2.05368137 Ha         -55.88351340 eV
  | XC energy correction          :          -0.82118298 Ha         -22.34552575 eV
  | XC potential correction       :           1.05615209 Ha          28.73936057 eV
  | Free-atom electrostatic energy:          -0.20436240 Ha          -5.56098386 eV
  | Hartree energy correction     :          -0.02821741 Ha          -0.76783471 eV
  | van der Waals energy corr.    :           0.00000000 Ha           0.00000000 eV
  | Entropy correction            :           0.00000000 Ha           0.00000000 eV
  | ---------------------------
  | Total energy                  :          -2.05129207 Ha         -55.81849715 eV
  | Total energy, T -> 0          :          -2.05129207 Ha         -55.81849715 eV  <-- do not rely on this value for anything but (periodic) metals
  | Electronic free energy        :          -2.05129207 Ha         -55.81849715 eV

  Derived energy quantities:
  | Kinetic energy                :          -3.19018194 Ha         -86.80926737 eV
  | Electrostatic energy          :           1.96007285 Ha          53.33629597 eV
  | Energy correction for multipole
  | error in Hartree potential    :           0.00184546 Ha           0.05021765 eV
  | Sum of eigenvalues per atom                           :         -27.94175670 eV
  | Total energy (T->0) per atom                          :         -27.90924858 eV  <-- do not rely on this value for anything but (periodic) metals
  | Electronic free energy per atom                       :         -27.90924858 eV

  Self-consistency convergence accuracy:
  | Change of charge/spin density : 0.1135E+01 0.3310E+00
  | Change of sum of eigenvalues  : -.5152E+01 eV
  | Change of total energy        : -.7101E+01 eV

  End self-consistency iteration #     7       :  max(cpu_time)    wall_clock(cpu1)
  | Time for this iteration                    :        0.028 s           0.028 s
  | Charge density update                      :        0.008 s           0.007 s
  | Density mixing                             :        0.002 s           0.002 s
  | Hartree multipole update                   :        0.001 s           0.002 s
  | Hartree multipole summation                :        0.004 s           0.004 s
  | Integration                                :        0.010 s           0.010 s
  | Solution of K.-S. eqns.                    :        0.001 s           0.001 s
  | Total energy evaluation                    :        0.000 s           0.000 s
------------------------------------------------------------

------------------------------------------------------------
          Begin self-consistency iteration #    8

  Date     :  20220120, Time     :  152648.721
------------------------------------------------------------
  Evaluating new KS density.
  Integration grid: deviation in total charge (<rho> - N_e) =   4.686774E-08
  | <rho_up-rho_dn> = N_up-N_dn =     -0.3033; <|rho_up-rho_dn|> =      1.2031
  Pulay mixing of updated and previous charge densities.

  Evaluating partitioned Hartree potential by multipole expansion.
  | Analytical far-field extrapolation by fixed multipoles:
  | Hartree multipole sum: apparent total charge =  -0.129414E-04
  Summing up the Hartree potential.
  Time summed over all CPUs for potential: real work        0.034 s, elapsed        0.039 s
  | RMS charge density error from multipole expansion :   0.108779E-01

  Integrating Hamiltonian matrix: batch-based integration.
  Time summed over all CPUs for integration: real work        0.071 s, elapsed        0.083 s

  Updating Kohn-Sham eigenvalues, eigenvectors, occupation numbers, and Fermi level.
  Solving generalized eigenproblem
  Solving real symmetric generalised eigenvalue problem by standard ScaLAPACK.
  Using Cholesky factor for transformation
  Using 1-stage real ELPA solver
  Solving real symmetric generalised eigenvalue problem by standard ScaLAPACK.
  Using Cholesky factor for transformation
  Using 1-stage real ELPA solver
  Determining occupation numbers for Kohn-Sham eigenstates.
  | Chemical potential (Fermi level) in eV                 : -.27585237E+02
  | Error in electron count due to remaining E_F inaccuracy: 0.00000000E+00
  | Maximum occupation number of highest empty state:  0.00E+00

  Current spin moment of the entire structure :
  | N = N_up - N_down :    0.00
  | S                 :    0.00
  | J                 :    1.00

  Highest occupied state (VBM) at    -30.09769192 eV
  | Occupation number:      1.00000000
  | Spin channel:        2

  Lowest unoccupied state (CBM) at    -4.53853062 eV
  | Occupation number:      0.00000000
  | Spin channel:        1

  Overall HOMO-LUMO gap:     25.55916130 eV.

  Total energy components:
  | Sum of eigenvalues            :          -2.24456477 Ha         -61.07771511 eV
  | XC energy correction          :          -0.92210909 Ha         -25.09186499 eV
  | XC potential correction       :           1.18639000 Ha          32.28331434 eV
  | Free-atom electrostatic energy:          -0.20436240 Ha          -5.56098386 eV
  | Hartree energy correction     :          -0.20704381 Ha          -5.63394881 eV
  | van der Waals energy corr.    :           0.00000000 Ha           0.00000000 eV
  | Entropy correction            :           0.00000000 Ha           0.00000000 eV
  | ---------------------------
  | Total energy                  :          -2.39169008 Ha         -65.08119842 eV
  | Total energy, T -> 0          :          -2.39169008 Ha         -65.08119842 eV  <-- do not rely on this value for anything but (periodic) metals
  | Electronic free energy        :          -2.39169008 Ha         -65.08119842 eV

  Derived energy quantities:
  | Kinetic energy                :          -4.01397991 Ha        -109.22595068 eV
  | Electrostatic energy          :           2.54439892 Ha          69.23661725 eV
  | Energy correction for multipole
  | error in Hartree potential    :           0.00229213 Ha           0.06237206 eV
  | Sum of eigenvalues per atom                           :         -30.53885755 eV
  | Total energy (T->0) per atom                          :         -32.54059921 eV  <-- do not rely on this value for anything but (periodic) metals
  | Electronic free energy per atom                       :         -32.54059921 eV

  Self-consistency convergence accuracy:
  | Change of charge/spin density : 0.1288E+01 0.3830E+00
  | Change of sum of eigenvalues  : -.5194E+01 eV
  | Change of total energy        : -.9263E+01 eV

  End self-consistency iteration #     8       :  max(cpu_time)    wall_clock(cpu1)
  | Time for this iteration                    :        0.030 s           0.029 s
  | Charge density update                      :        0.007 s           0.007 s
  | Density mixing                             :        0.002 s           0.001 s
  | Hartree multipole update                   :        0.001 s           0.002 s
  | Hartree multipole summation                :        0.005 s           0.005 s
  | Integration                                :        0.011 s           0.011 s
  | Solution of K.-S. eqns.                    :        0.002 s           0.002 s
  | Total energy evaluation                    :        0.000 s           0.001 s
------------------------------------------------------------

------------------------------------------------------------
          Begin self-consistency iteration #    9

  Date     :  20220120, Time     :  152648.752
------------------------------------------------------------
  Evaluating new KS density.
  Integration grid: deviation in total charge (<rho> - N_e) =  -1.492426E-08
  | <rho_up-rho_dn> = N_up-N_dn =      0.1296; <|rho_up-rho_dn|> =      1.3729
  Pulay mixing of updated and previous charge densities.

  Evaluating partitioned Hartree potential by multipole expansion.
  | Analytical far-field extrapolation by fixed multipoles:
  | Hartree multipole sum: apparent total charge =   0.163923E-05
  Summing up the Hartree potential.
  Time summed over all CPUs for potential: real work        0.035 s, elapsed        0.050 s
  | RMS charge density error from multipole expansion :   0.272023E-02

  Integrating Hamiltonian matrix: batch-based integration.
  Time summed over all CPUs for integration: real work        0.068 s, elapsed        0.072 s

  Updating Kohn-Sham eigenvalues, eigenvectors, occupation numbers, and Fermi level.
  Solving generalized eigenproblem
  Solving real symmetric generalised eigenvalue problem by standard ScaLAPACK.
  Using Cholesky factor for transformation
  Using 1-stage real ELPA solver
  Solving real symmetric generalised eigenvalue problem by standard ScaLAPACK.
  Using Cholesky factor for transformation
  Using 1-stage real ELPA solver
  Determining occupation numbers for Kohn-Sham eigenstates.
  | Chemical potential (Fermi level) in eV                 : -.49792711E+01
  | Error in electron count due to remaining E_F inaccuracy: 0.00000000E+00
  | Maximum occupation number of highest empty state:  0.00E+00

  Current spin moment of the entire structure :
  | N = N_up - N_down :    0.00
  | S                 :    0.00
  | J                 :    1.00

  Highest occupied state (VBM) at     -7.16311756 eV
  | Occupation number:      1.00000000
  | Spin channel:        2

  Lowest unoccupied state (CBM) at     2.19752566 eV
  | Occupation number:      0.00000000
  | Spin channel:        1

  Overall HOMO-LUMO gap:      9.36064321 eV.

  Total energy components:
  | Sum of eigenvalues            :          -0.53089478 Ha         -14.44638186 eV
  | XC energy correction          :          -0.92114969 Ha         -25.06575841 eV
  | XC potential correction       :           1.18469637 Ha          32.23722856 eV
  | Free-atom electrostatic energy:          -0.20436240 Ha          -5.56098386 eV
  | Hartree energy correction     :          -0.68264364 Ha         -18.57567862 eV
  | van der Waals energy corr.    :           0.00000000 Ha           0.00000000 eV
  | Entropy correction            :           0.00000000 Ha           0.00000000 eV
  | ---------------------------
  | Total energy                  :          -1.15435413 Ha         -31.41157419 eV
  | Total energy, T -> 0          :          -1.15435413 Ha         -31.41157419 eV  <-- do not rely on this value for anything but (periodic) metals
  | Electronic free energy        :          -1.15435413 Ha         -31.41157419 eV

  Derived energy quantities:
  | Kinetic energy                :           1.80154560 Ha          49.02255001 eV
  | Electrostatic energy          :          -2.03475004 Ha         -55.36836579 eV
  | Energy correction for multipole
  | error in Hartree potential    :          -0.00022991 Ha          -0.00625610 eV
  | Sum of eigenvalues per atom                           :          -7.22319093 eV
  | Total energy (T->0) per atom                          :         -15.70578709 eV  <-- do not rely on this value for anything but (periodic) metals
  | Electronic free energy per atom                       :         -15.70578709 eV

  Self-consistency convergence accuracy:
  | Change of charge/spin density : 0.1477E+01 0.4909E+00
  | Change of sum of eigenvalues  : 0.4663E+02 eV
  | Change of total energy        : 0.3367E+02 eV

  End self-consistency iteration #     9       :  max(cpu_time)    wall_clock(cpu1)
  | Time for this iteration                    :        0.030 s           0.029 s
  | Charge density update                      :        0.007 s           0.007 s
  | Density mixing                             :        0.002 s           0.001 s
  | Hartree multipole update                   :        0.001 s           0.002 s
  | Hartree multipole summation                :        0.007 s           0.006 s
  | Integration                                :        0.009 s           0.010 s
  | Solution of K.-S. eqns.                    :        0.002 s           0.002 s
  | Total energy evaluation                    :        0.000 s           0.001 s
------------------------------------------------------------

------------------------------------------------------------
          Begin self-consistency iteration #   10

  Date     :  20220120, Time     :  152648.783
------------------------------------------------------------
  Evaluating new KS density.
  Integration grid: deviation in total charge (<rho> - N_e) =   1.183776E-08
  | <rho_up-rho_dn> = N_up-N_dn =     -0.0057; <|rho_up-rho_dn|> =      0.2954
  Pulay mixing of updated and previous charge densities.

  Evaluating partitioned Hartree potential by multipole expansion.
  | Analytical far-field extrapolation by fixed multipoles:
  | Hartree multipole sum: apparent total charge =  -0.632954E-06
  Summing up the Hartree potential.
  Time summed over all CPUs for potential: real work        0.034 s, elapsed        0.040 s
  | RMS charge density error from multipole expansion :   0.128916E-02

  Integrating Hamiltonian matrix: batch-based integration.
  Time summed over all CPUs for integration: real work        0.071 s, elapsed        0.079 s

  Updating Kohn-Sham eigenvalues, eigenvectors, occupation numbers, and Fermi level.
  Solving generalized eigenproblem
  Solving real symmetric generalised eigenvalue problem by standard ScaLAPACK.
  Using Cholesky factor for transformation
  Using 1-stage real ELPA solver
  Solving real symmetric generalised eigenvalue problem by standard ScaLAPACK.
  Using Cholesky factor for transformation
  Using 1-stage real ELPA solver
  Determining occupation numbers for Kohn-Sham eigenstates.
  | Chemical potential (Fermi level) in eV                 : -.84245481E+01
  | Error in electron count due to remaining E_F inaccuracy: 0.00000000E+00
  | Maximum occupation number of highest empty state:  0.00E+00

  Current spin moment of the entire structure :
  | N = N_up - N_down :    0.00
  | S                 :    0.00
  | J                 :    1.00

  Highest occupied state (VBM) at    -10.69841655 eV
  | Occupation number:      1.00000000
  | Spin channel:        2

  Lowest unoccupied state (CBM) at     1.39142372 eV
  | Occupation number:      0.00000000
  | Spin channel:        1

  Overall HOMO-LUMO gap:     12.08984027 eV.

  Total energy components:
  | Sum of eigenvalues            :          -0.78989886 Ha         -21.49424165 eV
  | XC energy correction          :          -0.75783883 Ha         -20.62184372 eV
  | XC potential correction       :           0.97465967 Ha          26.52183895 eV
  | Free-atom electrostatic energy:          -0.20436240 Ha          -5.56098386 eV
  | Hartree energy correction     :          -0.36428335 Ha          -9.91265426 eV
  | van der Waals energy corr.    :           0.00000000 Ha           0.00000000 eV
  | Entropy correction            :           0.00000000 Ha           0.00000000 eV
  | ---------------------------
  | Total energy                  :          -1.14172377 Ha         -31.06788454 eV
  | Total energy, T -> 0          :          -1.14172377 Ha         -31.06788454 eV  <-- do not rely on this value for anything but (periodic) metals
  | Electronic free energy        :          -1.14172377 Ha         -31.06788454 eV

  Derived energy quantities:
  | Kinetic energy                :           1.24691524 Ha          33.93029005 eV
  | Electrostatic energy          :          -1.63080018 Ha         -44.37633086 eV
  | Energy correction for multipole
  | error in Hartree potential    :           0.00008962 Ha           0.00243875 eV
  | Sum of eigenvalues per atom                           :         -10.74712083 eV
  | Total energy (T->0) per atom                          :         -15.53394227 eV  <-- do not rely on this value for anything but (periodic) metals
  | Electronic free energy per atom                       :         -15.53394227 eV

  Self-consistency convergence accuracy:
  | Change of charge/spin density : 0.1830E+00 0.1026E+00
  | Change of sum of eigenvalues  : -.7048E+01 eV
  | Change of total energy        : 0.3437E+00 eV

  End self-consistency iteration #    10       :  max(cpu_time)    wall_clock(cpu1)
  | Time for this iteration                    :        0.029 s           0.028 s
  | Charge density update                      :        0.007 s           0.006 s
  | Density mixing                             :        0.002 s           0.002 s
  | Hartree multipole update                   :        0.001 s           0.001 s
  | Hartree multipole summation                :        0.005 s           0.006 s
  | Integration                                :        0.010 s           0.010 s
  | Solution of K.-S. eqns.                    :        0.002 s           0.002 s
  | Total energy evaluation                    :        0.000 s           0.001 s
------------------------------------------------------------

------------------------------------------------------------
          Begin self-consistency iteration #   11

  Date     :  20220120, Time     :  152648.813
------------------------------------------------------------
  Evaluating new KS density.
  Integration grid: deviation in total charge (<rho> - N_e) =   1.162732E-08
  | <rho_up-rho_dn> = N_up-N_dn =      0.0053; <|rho_up-rho_dn|> =      0.0890
  Pulay mixing of updated and previous charge densities.

  Evaluating partitioned Hartree potential by multipole expansion.
  | Analytical far-field extrapolation by fixed multipoles:
  | Hartree multipole sum: apparent total charge =  -0.497623E-05
  Summing up the Hartree potential.
  Time summed over all CPUs for potential: real work        0.034 s, elapsed        0.040 s
  | RMS charge density error from multipole expansion :   0.328551E-02

  Integrating Hamiltonian matrix: batch-based integration.
  Time summed over all CPUs for integration: real work        0.072 s, elapsed        0.076 s

  Updating Kohn-Sham eigenvalues, eigenvectors, occupation numbers, and Fermi level.
  Solving generalized eigenproblem
  Solving real symmetric generalised eigenvalue problem by standard ScaLAPACK.
  Using Cholesky factor for transformation
  Using 1-stage real ELPA solver
  Solving real symmetric generalised eigenvalue problem by standard ScaLAPACK.
  Using Cholesky factor for transformation
  Using 1-stage real ELPA solver
  Determining occupation numbers for Kohn-Sham eigenstates.
  | Chemical potential (Fermi level) in eV                 : -.12351647E+02
  | Error in electron count due to remaining E_F inaccuracy: 0.00000000E+00
  | Maximum occupation number of highest empty state:  0.00E+00

  Current spin moment of the entire structure :
  | N = N_up - N_down :    0.00
  | S                 :    0.00
  | J                 :    1.00

  Highest occupied state (VBM) at    -14.77041619 eV
  | Occupation number:      1.00000000
  | Spin channel:        1

  Lowest unoccupied state (CBM) at     0.13460210 eV
  | Occupation number:      0.00000000
  | Spin channel:        1

  Overall HOMO-LUMO gap:     14.90501829 eV.

  Total energy components:
  | Sum of eigenvalues            :          -1.08885327 Ha         -29.62920492 eV
  | XC energy correction          :          -0.62889866 Ha         -17.11320322 eV
  | XC potential correction       :           0.80795972 Ha          21.98570272 eV
  | Free-atom electrostatic energy:          -0.20436240 Ha          -5.56098386 eV
  | Hartree energy correction     :           0.01965025 Ha           0.53471045 eV
  | van der Waals energy corr.    :           0.00000000 Ha           0.00000000 eV
  | Entropy correction            :           0.00000000 Ha           0.00000000 eV
  | ---------------------------
  | Total energy                  :          -1.09450435 Ha         -29.78297883 eV
  | Total energy, T -> 0          :          -1.09450435 Ha         -29.78297883 eV  <-- do not rely on this value for anything but (periodic) metals
  | Electronic free energy        :          -1.09450435 Ha         -29.78297883 eV

  Derived energy quantities:
  | Kinetic energy                :           0.10963406 Ha           2.98329466 eV
  | Electrostatic energy          :          -0.57523976 Ha         -15.65307027 eV
  | Energy correction for multipole
  | error in Hartree potential    :           0.00078112 Ha           0.02125525 eV
  | Sum of eigenvalues per atom                           :         -14.81460246 eV
  | Total energy (T->0) per atom                          :         -14.89148942 eV  <-- do not rely on this value for anything but (periodic) metals
  | Electronic free energy per atom                       :         -14.89148942 eV

[...]
  | Change of sum of eigenvalues  : -.3197E-03 eV
  | Change of total energy        : -.2130E-08 eV

  End self-consistency iteration #    26       :  max(cpu_time)    wall_clock(cpu1)
  | Time for this iteration                    :        0.030 s           0.030 s
  | Charge density update                      :        0.007 s           0.007 s
  | Density mixing                             :        0.002 s           0.002 s
  | Hartree multipole update                   :        0.001 s           0.002 s
  | Hartree multipole summation                :        0.005 s           0.004 s
  | Integration                                :        0.011 s           0.012 s
  | Solution of K.-S. eqns.                    :        0.002 s           0.002 s
  | Total energy evaluation                    :        0.000 s           0.000 s
------------------------------------------------------------

------------------------------------------------------------
          Begin self-consistency iteration #   27

  Date     :  20220120, Time     :  152649.292
------------------------------------------------------------
  Evaluating new KS density.
  Integration grid: deviation in total charge (<rho> - N_e) =   3.004708E-12
  | <rho_up-rho_dn> = N_up-N_dn =      0.0000; <|rho_up-rho_dn|> =      0.0000
  Pulay mixing of updated and previous charge densities.

  Evaluating partitioned Hartree potential by multipole expansion.
  | Analytical far-field extrapolation by fixed multipoles:
  | Hartree multipole sum: apparent total charge =   0.107641E-05
  Summing up the Hartree potential.
  Time summed over all CPUs for potential: real work        0.033 s, elapsed        0.033 s
  | RMS charge density error from multipole expansion :   0.162475E-02

  Integrating Hamiltonian matrix: batch-based integration.
  Time summed over all CPUs for integration: real work        0.082 s, elapsed        0.086 s

  Updating Kohn-Sham eigenvalues, eigenvectors, occupation numbers, and Fermi level.
  Solving generalized eigenproblem
  Solving real symmetric generalised eigenvalue problem by standard ScaLAPACK.
  Using Cholesky factor for transformation
  Using 1-stage real ELPA solver
  Solving real symmetric generalised eigenvalue problem by standard ScaLAPACK.
  Using Cholesky factor for transformation
  Using 1-stage real ELPA solver
  Determining occupation numbers for Kohn-Sham eigenstates.
  | Chemical potential (Fermi level) in eV                 : -.94938228E+01
  | Error in electron count due to remaining E_F inaccuracy: 0.00000000E+00
  | Maximum occupation number of highest empty state:  0.00E+00

  Current spin moment of the entire structure :
  | N = N_up - N_down :    0.00
  | S                 :    0.00
  | J                 :    1.00

  Highest occupied state (VBM) at    -11.13999919 eV
  | Occupation number:      1.00000000
  | Spin channel:        2

  Lowest unoccupied state (CBM) at     1.01102143 eV
  | Occupation number:      0.00000000
  | Spin channel:        1

  Overall HOMO-LUMO gap:     12.15102062 eV.

  Total energy components:
  | Sum of eigenvalues            :          -0.81877489 Ha         -22.27999847 eV
  | XC energy correction          :          -0.74083037 Ha         -20.15902011 eV
  | XC potential correction       :           0.95090215 Ha          25.87536413 eV
  | Free-atom electrostatic energy:          -0.20436240 Ha          -5.56098386 eV
  | Hartree energy correction     :          -0.33349306 Ha          -9.07480801 eV
  | van der Waals energy corr.    :           0.00000000 Ha           0.00000000 eV
  | Entropy correction            :           0.00000000 Ha           0.00000000 eV
  | ---------------------------
  | Total energy                  :          -1.14655858 Ha         -31.19944632 eV
  | Total energy, T -> 0          :          -1.14655858 Ha         -31.19944632 eV  <-- do not rely on this value for anything but (periodic) metals
  | Electronic free energy        :          -1.14655858 Ha         -31.19944632 eV

  Derived energy quantities:
  | Kinetic energy                :           1.30162509 Ha          35.41902089 eV
  | Electrostatic energy          :          -1.70735330 Ha         -46.45944709 eV
  | Energy correction for multipole
  | error in Hartree potential    :          -0.00004644 Ha          -0.00126383 eV
  | Sum of eigenvalues per atom                           :         -11.13999923 eV
  | Total energy (T->0) per atom                          :         -15.59972316 eV  <-- do not rely on this value for anything but (periodic) metals
  | Electronic free energy per atom                       :         -15.59972316 eV

  Self-consistency convergence accuracy:
  | Change of charge/spin density : 0.5166E-05 0.2468E-05
  | Change of sum of eigenvalues  : 0.1806E-03 eV
  | Change of total energy        : 0.4858E-09 eV

  End self-consistency iteration #    27       :  max(cpu_time)    wall_clock(cpu1)
  | Time for this iteration                    :        0.029 s           0.028 s
  | Charge density update                      :        0.008 s           0.007 s
  | Density mixing                             :        0.002 s           0.002 s
  | Hartree multipole update                   :        0.001 s           0.001 s
  | Hartree multipole summation                :        0.004 s           0.005 s
  | Integration                                :        0.011 s           0.011 s
  | Solution of K.-S. eqns.                    :        0.001 s           0.001 s
  | Total energy evaluation                    :        0.000 s           0.000 s
------------------------------------------------------------

------------------------------------------------------------
          Begin self-consistency iteration #   28

  Date     :  20220120, Time     :  152649.322
------------------------------------------------------------
  Evaluating new KS density.
  Integration grid: deviation in total charge (<rho> - N_e) =   4.618528E-14
  | <rho_up-rho_dn> = N_up-N_dn =     -0.0000; <|rho_up-rho_dn|> =      0.0000
  Pulay mixing of updated and previous charge densities.

  Evaluating partitioned Hartree potential by multipole expansion.
  | Analytical far-field extrapolation by fixed multipoles:
  | Hartree multipole sum: apparent total charge =   0.107641E-05
  Summing up the Hartree potential.
  Time summed over all CPUs for potential: real work        0.033 s, elapsed        0.035 s
  | RMS charge density error from multipole expansion :   0.162475E-02

  Integrating Hamiltonian matrix: batch-based integration.
  Time summed over all CPUs for integration: real work        0.072 s, elapsed        0.077 s

  Updating Kohn-Sham eigenvalues, eigenvectors, occupation numbers, and Fermi level.
  Solving generalized eigenproblem
  Solving real symmetric generalised eigenvalue problem by standard ScaLAPACK.
  Using Cholesky factor for transformation
  Using 1-stage real ELPA solver
  Solving real symmetric generalised eigenvalue problem by standard ScaLAPACK.
  Using Cholesky factor for transformation
  Using 1-stage real ELPA solver
  Determining occupation numbers for Kohn-Sham eigenstates.
  | Chemical potential (Fermi level) in eV                 : -.94938484E+01
  | Error in electron count due to remaining E_F inaccuracy: 0.00000000E+00
  | Maximum occupation number of highest empty state:  0.00E+00

  Current spin moment of the entire structure :
  | N = N_up - N_down :    0.00
  | S                 :    0.00
  | J                 :    1.00

  Highest occupied state (VBM) at    -11.13999858 eV
  | Occupation number:      1.00000000
  | Spin channel:        1

  Lowest unoccupied state (CBM) at     1.01103141 eV
  | Occupation number:      0.00000000
  | Spin channel:        1

  Overall HOMO-LUMO gap:     12.15103000 eV.

  Total energy components:
  | Sum of eigenvalues            :          -0.81877485 Ha         -22.27999718 eV
  | XC energy correction          :          -0.74083038 Ha         -20.15902041 eV
  | XC potential correction       :           0.95090217 Ha          25.87536458 eV
  | Free-atom electrostatic energy:          -0.20436240 Ha          -5.56098386 eV
  | Hartree energy correction     :          -0.33349312 Ha          -9.07480944 eV
  | van der Waals energy corr.    :           0.00000000 Ha           0.00000000 eV
  | Entropy correction            :           0.00000000 Ha           0.00000000 eV
  | ---------------------------
  | Total energy                  :          -1.14655858 Ha         -31.19944632 eV
  | Total energy, T -> 0          :          -1.14655858 Ha         -31.19944632 eV  <-- do not rely on this value for anything but (periodic) metals
  | Electronic free energy        :          -1.14655858 Ha         -31.19944632 eV

  Derived energy quantities:
  | Kinetic energy                :           1.30162505 Ha          35.41901969 eV
  | Electrostatic energy          :          -1.70735324 Ha         -46.45944559 eV
  | Energy correction for multipole
  | error in Hartree potential    :          -0.00004644 Ha          -0.00126383 eV
  | Sum of eigenvalues per atom                           :         -11.13999859 eV
  | Total energy (T->0) per atom                          :         -15.59972316 eV  <-- do not rely on this value for anything but (periodic) metals
  | Electronic free energy per atom                       :         -15.59972316 eV

  Self-consistency convergence accuracy:
  | Change of charge/spin density : 0.1268E-06 0.4388E-07
  | Change of sum of eigenvalues  : 0.1282E-05 eV
  | Change of total energy        : 0.3938E-10 eV

  Writing Kohn-Sham eigenvalues.

  Spin-up eigenvalues:

  State    Occupation    Eigenvalue [Ha]    Eigenvalue [eV]
      1       1.00000          -0.409387          -11.14000
      2       0.00000           0.037155            1.01103
      3       0.00000           0.045847            1.24757
      4       0.00000           0.191172            5.20205
      5       0.00000           0.330673            8.99808
      6       0.00000           0.330673            8.99808
      7       0.00000           0.357305            9.72276
      8       0.00000           0.623724           16.97240
      9       0.00000           0.792035           21.55237
     10       0.00000           0.792035           21.55237
     11       0.00000           0.800524           21.78336

  Spin-down eigenvalues:

  State    Occupation    Eigenvalue [Ha]    Eigenvalue [eV]
      1       1.00000          -0.409387          -11.14000
      2       0.00000           0.037155            1.01104
      3       0.00000           0.045847            1.24757
      4       0.00000           0.191172            5.20207
      5       0.00000           0.330674            8.99808
      6       0.00000           0.330674            8.99808
      7       0.00000           0.357305            9.72276
      8       0.00000           0.623724           16.97241
      9       0.00000           0.792035           21.55237
     10       0.00000           0.792035           21.55237
     11       0.00000           0.800524           21.78336

  Current spin moment of the entire structure :
  | N = N_up - N_down :    0.00
  | S                 :    0.00
  | J                 :    1.00

  Highest occupied state (VBM) at    -11.13999858 eV
  | Occupation number:      1.00000000
  | Spin channel:        1

  Lowest unoccupied state (CBM) at     1.01103141 eV
  | Occupation number:      0.00000000
  | Spin channel:        1

  Overall HOMO-LUMO gap:     12.15103000 eV.

  Self-consistency cycle converged.

  End self-consistency iteration #    28       :  max(cpu_time)    wall_clock(cpu1)
  | Time for this iteration                    :        0.027 s           0.027 s
  | Charge density update                      :        0.007 s           0.006 s
  | Density mixing                             :        0.002 s           0.002 s
  | Hartree multipole update                   :        0.001 s           0.001 s
  | Hartree multipole summation                :        0.005 s           0.005 s
  | Integration                                :        0.010 s           0.010 s
  | Solution of K.-S. eqns.                    :        0.001 s           0.001 s
  | Total energy evaluation                    :        0.000 s           0.001 s
------------------------------------------------------------
  Obtaining max. number of non-zero basis functions in each batch .
  Evaluating KS electron density on previously omitted grid points.
  Evaluating non-empirical van der Waals correction (Tkatchenko/Scheffler 2009).
  Performing Hirshfeld analysis of fragment charges and moments.
  ----------------------------------------------------------------------
  | Atom     1: H
  |   Hirshfeld charge        :     -0.00000056
  |   Free atom volume        :     10.31539447
  |   Hirshfeld volume        :      4.60133728
  |   Hirshfeld spin moment   :      0.00000009
  |   Hirshfeld dipole vector :      0.00000000      -0.00000000      -0.07241746
  |   Hirshfeld dipole moment :      0.07241746
  |   Hirshfeld second moments:      0.14194043       0.00000000       0.00000000
  |                                  0.00000000       0.14194043       0.00000000
  |                                  0.00000000       0.00000000       0.13906421
  ----------------------------------------------------------------------
  | Atom     2: H
  |   Hirshfeld charge        :     -0.00000056
  |   Free atom volume        :     10.31539447
  |   Hirshfeld volume        :      4.60133728
  |   Hirshfeld spin moment   :      0.00000009
  |   Hirshfeld dipole vector :      0.00000000       0.00000000       0.07241746
  |   Hirshfeld dipole moment :      0.07241746
  |   Hirshfeld second moments:      0.14194043       0.00000000       0.00000000
  |                                  0.00000000       0.14194043       0.00000000
  |                                  0.00000000       0.00000000       0.13906421
  ----------------------------------------------------------------------


  Total energy components:
  | Sum of eigenvalues            :          -0.81877485 Ha         -22.27999718 eV
  | XC energy correction          :          -0.74083038 Ha         -20.15902041 eV
  | XC potential correction       :           0.95090217 Ha          25.87536458 eV
  | Free-atom electrostatic energy:          -0.20436240 Ha          -5.56098386 eV
  | Hartree energy correction     :          -0.33349312 Ha          -9.07480944 eV
  | van der Waals energy corr.    :          -0.00000020 Ha          -0.00000556 eV
  | Entropy correction            :           0.00000000 Ha           0.00000000 eV
  | ---------------------------
  | Total energy                  :          -1.14655878 Ha         -31.19945187 eV
  | Total energy, T -> 0          :          -1.14655878 Ha         -31.19945187 eV  <-- do not rely on this value for anything but (periodic) metals
  | Electronic free energy        :          -1.14655878 Ha         -31.19945187 eV

  Derived energy quantities:
  | Kinetic energy                :           1.30162505 Ha          35.41901969 eV
  | Electrostatic energy          :          -1.70735324 Ha         -46.45944559 eV
  | Energy correction for multipole
  | error in Hartree potential    :          -0.00004644 Ha          -0.00126383 eV
  | Sum of eigenvalues per atom                           :         -11.13999859 eV
  | Total energy (T->0) per atom                          :         -15.59972594 eV  <-- do not rely on this value for anything but (periodic) metals
  | Electronic free energy per atom                       :         -15.59972594 eV
  Timings for VdW correction (Tkatchenko-Scheffler 2009 or later):
  | CPU time:        0.003 s, Wall clock time:        0.003 s.

  Energy and forces in a compact form:
  | Total energy uncorrected      :         -0.311994518735563E+02 eV
  | Total energy corrected        :         -0.311994518735563E+02 eV  <-- do not rely on this value for anything but (periodic) metals
  | Electronic free energy        :         -0.311994518735563E+02 eV

  ------------------------------------ 
  Start decomposition of the XC Energy 
  ------------------------------------ 
  Hartree-Fock part   :          0.000000000 Ha              0.000000000 eV
  ------------------------------------ 
  X Energy            :         -0.697327424 Ha            -18.975244658 eV
  C Energy GGA        :         -0.043502959 Ha             -1.183775756 eV
  Total XC Energy     :         -0.740830383 Ha            -20.159020414 eV
  LDA X and C from self-consistent density 
  X Energy LDA        :         -0.610417792 Ha            -16.610313252 eV
  C Energy LDA        :         -0.097396056 Ha             -2.650281536 eV
  ------------------------------------ 
  End decomposition of the XC Energy 
  ------------------------------------ 

------------------------------------------------------------------------------
  Final output of selected total energy values:

  The following output summarizes some interesting total energy values
  at the end of a run (AFTER all relaxation, molecular dynamics, etc.).

  | Total energy of the DFT / Hartree-Fock s.c.f. calculation      :            -31.199451874 eV
  | Final zero-broadening corrected energy (caution - metals only) :            -31.199451874 eV
  | For reference only, the value of 1 Hartree used in FHI-aims is :             27.211384500 eV

  Before relying on these values, please be sure to understand exactly which
  total energy value is referred to by a given number. Different objects may
  all carry the same name 'total energy'. Definitions:

  Total energy of the DFT / Hartree-Fock s.c.f. calculation:
  | Note that this energy does not include ANY quantities calculated after the
  | s.c.f. cycle, in particular not ANY RPA, MP2, etc. many-body perturbation terms.

  Final zero-broadening corrected energy:
  | For metallic systems only, a broadening of the occupation numbers at the Fermi
  | level can be extrapolated back to zero broadening by an electron-gas inspired
  | formula. For all systems that are not real metals, this value can be
  | meaningless and should be avoided.

------------------------------------------------------------------------------

------------------------------------------------------------
          Leaving FHI-aims.
          Date     :  20220120, Time     :  152649.358

          Computational steps:
          | Number of self-consistency cycles          :           28

          Detailed time accounting                     :  max(cpu_time)    wall_clock(cpu1)
          | Total time                                 :        0.979 s           1.085 s
          | Preparation time                           :        0.087 s           0.083 s
          | Grid partitioning                          :        0.007 s           0.007 s
          | Preloading free-atom quantities on grid    :        0.005 s           0.003 s
          | Free-atom superposition energy             :        0.002 s           0.003 s
          | Total time for integrations                :        0.295 s           0.295 s
          | Total time for solution of K.-S. equations :        0.055 s           0.059 s
          | Total time for density update              :        0.200 s           0.177 s
          | Total time for mixing                      :        0.049 s           0.053 s
          | Total time for Hartree multipole update    :        0.038 s           0.039 s
          | Total time for Hartree multipole sum       :        0.140 s           0.145 s
          | Total time for total energy evaluation     :        0.005 s           0.019 s
          | Total time for scaled ZORA corrections     :        0.000 s           0.000 s
          | Total time for vdW correction              :        0.003 s           0.003 s

          Have a nice day.
------------------------------------------------------------
