  MPI-parallelism will be employed.
------------------------------------------------------------
          Invoking FHI-aims ...
          Version 052014
          Git rev. (modified): 096c982 Merge branch master of fhiaims:/pub/localo[...]
          Compiled on 2016/12/16 at 15:22:01 on host login02.hpc.iitd.ac.in.

          When using FHI-aims, please cite the following reference:

          Volker Blum, Ralf Gehrke, Felix Hanke, Paula Havu,
          Ville Havu, Xinguo Ren, Karsten Reuter, and Matthias Scheffler,
          'Ab Initio Molecular Simulations with Numeric Atom-Centered Orbitals: FHI-aims',
          Computer Physics Communications 180, 2175-2196 (2009)

          For any questions about FHI-aims, please visit the aimsclub website
          with its forums and wiki. Contributions to both the forums and the
          wiki are warmly encouraged - they are for you, and everyone is welcome there.

------------------------------------------------------------

  Date     :  20220120, Time     :  153124.009
  Time zero on CPU 1             :   0.110610000000000E-01  s.
  Internal wall clock time zero  :           411924684.009  s.

  Using        8 parallel tasks.
  Task        0 on host csky038 reporting.
  Task        1 on host csky038 reporting.
  Task        2 on host csky038 reporting.
  Task        3 on host csky038 reporting.
  Task        4 on host csky038 reporting.
  Task        5 on host csky038 reporting.
  Task        6 on host csky038 reporting.
  Task        7 on host csky038 reporting.

  Performing system and environment tests:
  | Environment variable OMP_NUM_THREADS correctly set to 1.
  | Stacksize not measured: no C compiler
  | Checking for scalapack...
  | Testing pdtran()...
  | All pdtran() tests passed.

  Obtaining array dimensions for all initial allocations:
  
  -----------------------------------------------------------------------
  Parsing control.in (first pass over file, find array dimensions only).
  The contents of control.in will be repeated verbatim below
  unless switched off by setting 'verbatim_writeout .false.' .
  in the first line of control.in .
  -----------------------------------------------------------------------
  
    xc               pbe
    spin             collinear
    default_initial_moment hund
    relativistic     atomic_zora scalar 1e-9
    occupation_type  gaussian 0.001
    charge        0
    vdw_correction_hirshfeld
    KS_method        scalapack_fast
    mixer            pulay
    charge_mix_param  0.4
    spin_mix_param    0.6
    sc_accuracy_rho  1E-4
    sc_accuracy_eev  1E-5
    sc_accuracy_etot 1E-5
    sc_iter_limit    100
    empty_states     10
  ################################################################################
  #
  #  FHI-aims code project
  # Volker Blum, Fritz Haber Institute Berlin, 2009
  #
  #  Suggested "tight" defaults for H atom (to be pasted into control.in file)
  #
  ################################################################################
    species        H
  #     global species definitions
      nucleus             1
      mass                1.00794
  #
      l_hartree           6
  #
      cut_pot             4.0  2.0  1.0
      basis_dep_cutoff    1e-4
  #
      radial_base         24 7.0
      radial_multiplier   2
      angular_grids       specified
        division   0.1930   50
        division   0.3175  110
        division   0.4293  194
        division   0.5066  302
        division   0.5626  434
  #      division   0.5922  590
  #      division   0.6227  974
  #      division   0.6868 1202
  #      outer_grid  770
        outer_grid  434
  ################################################################################
  #
  #  Definition of "minimal" basis
  #
  ################################################################################
  #     valence basis states
      valence      1  s   1.
  #     ion occupancy
      ion_occ      1  s   0.5
  ################################################################################
  #
  #  Suggested additional basis functions. For production calculations,
  #  uncomment them one after another (the most important basis functions are
  #  listed first).
  #
  #  Basis constructed for dimers: 0.5 A, 0.7 A, 1.0 A, 1.5 A, 2.5 A
  #
  ################################################################################
  #  "First tier" - improvements: -1014.90 meV to -62.69 meV
       hydro 2 s 2.1
       hydro 2 p 3.5
  #  "Second tier" - improvements: -12.89 meV to -1.83 meV
       hydro 1 s 0.85
       hydro 2 p 3.7
       hydro 2 s 1.2
       hydro 3 d 7
  #  "Third tier" - improvements: -0.25 meV to -0.12 meV
  #     hydro 4 f 11.2
  #     hydro 3 p 4.8
  #     hydro 4 d 9
  #     hydro 3 s 3.2
  ################################################################################
  #
  # For methods that use the localized form of the "resolution of identity" for
  # the two-electron Coulomb operator (RI_method LVL), particularly Hartree-Fock and
  # hybrid density functional calculations, the highest accuracy can be obtained by
  # uncommenting the line beginning with "for_aux"  below, thus adding an extra g radial
  # function to the construction of the product basis set for the expansion.
  # See Ref. New J. Phys. 17, 093020 (2015) for more information, particularly Figs. 1 and 6.
  #
  ################################################################################
  #
  # for_aux hydro 5 g 6.0
  
  -----------------------------------------------------------------------
  Completed first pass over input file control.in .
  -----------------------------------------------------------------------
  
  
  -----------------------------------------------------------------------
  Parsing geometry.in (first pass over file, find array dimensions only).
  The contents of geometry.in will be repeated verbatim below
  unless switched off by setting 'verbatim_writeout .false.' .
  in the first line of geometry.in .
  -----------------------------------------------------------------------
  
  atom 0 0 0 H
  atom 0 0 0.57 H
  
  -----------------------------------------------------------------------
  Completed first pass over input file geometry.in .
  -----------------------------------------------------------------------
  

  Basic array size parameters:
  | Number of species                 :        1
  | Number of atoms                   :        2
  | Max. basis fn. angular momentum   :        2
  | Max. atomic/ionic basis occupied n:        1
  | Max. number of basis fn. types    :        2
  | Max. radial fns per species/type  :        6
  | Max. logarithmic grid size        :     1131
  | Max. radial integration grid size :       49
  | Max. angular integration grid size:      434
  | Max. angular grid division number :        8
  | Radial grid for Hartree potential :     1131
  | Number of spin channels           :        2

------------------------------------------------------------
          Reading file control.in.
------------------------------------------------------------
  XC: Using PBE gradient-corrected functionals.
  Spin treatment: Spin density functional theory - collinear spins.
  Initial spin moment per atom set according to Hund's rules.
  Scalar relativistic treatment of kinetic energy: on-site free-atom approximation to ZORA.
  Occupation type: Gaussian broadening, width =   0.100000E-02 eV.
  Charge =   0.000000E+00: Neutral system requested explicitly.
  Using non-empirical van der Waals correction (Hirshfeld partitioning):
  Kohn-Sham eigenvalues and eigenfunctions calculated by the ELPA eigensolver library.
  Using pulay charge density mixing.
  Charge density mixing - mixing parameter:     0.4000
  Spin density mixing - mixing parameter:     0.6000
  Convergence accuracy of self-consistent charge density: 0.1000E-03
  Convergence accuracy of sum of eigenvalues: 0.1000E-04
  Convergence accuracy of total energy: 0.1000E-04
  Maximum number of s.-c. iterations  :   100
  Number of empty states per atom:       10
 
  Reading configuration options for species H                   .
  | Found nuclear charge :   1.0000
  | Found atomic mass :    1.00794000000000      amu
  | Found l_max for Hartree potential  :   6
  | Found cutoff potl. onset [A], width [A], scale factor :    4.00000    2.00000    1.00000
  | Threshold for basis-dependent cutoff potential is   0.100000E-03
  | Found data for basic radial integration grid :    24 points, outermost radius =    7.000 A
  | Found multiplier for basic radial grid :   2
  | Found angular grid specification: user-specified.
  | Specified grid contains     6 separate shells.
  | Check grid settings after all constraints further below.
  | Found free-atom valence shell :  1 s   1.000
  | No ionic wave fns used. Skipping ion_occ.
  | Found hydrogenic basis function :  2 s   2.100
  | Found hydrogenic basis function :  2 p   3.500
  | Found hydrogenic basis function :  1 s   0.850
  | Found hydrogenic basis function :  2 p   3.700
  | Found hydrogenic basis function :  2 s   1.200
  | Found hydrogenic basis function :  3 d   7.000
  Species H                   : Missing cutoff potential type.
  Defaulting to exp(1/x)/(1-x)^2 type cutoff potential.
  Species H : No 'logarithmic' tag. Using default grid for free atom:
  | Default logarithmic grid data [bohr] : 0.1000E-03 0.1000E+03 0.1012E+01
  Species H : On-site basis accuracy parameter (for Gram-Schmidt orthonormalisation) not specified.
  Using default value basis_acc =  0.1000000E-03.
  Species H                   : Using default innermost maximum threshold i_radial=  2 for radial functions.
  Species H                   : Default cutoff onset for free atom density etc. : 0.40000000E+01 AA.
  Species H                   : Basic radial grid will be enhanced according to radial_multiplier =   2, to contain    49 grid points.
 
  Finished reading input file 'control.in'. Consistency checks are next.
 
  Target number of points in a grid batch is not set. Defaulting to  100
  Method for grid partitioning is not set. Defaulting to parallel hash+maxmin partitioning.
  Batch size limit is not set. Defaulting to    200
  By default, will store active basis functions for each batch.
  If in need of memory, prune_basis_once .false. can be used to disable this option.
  communication_type for Hartree potential was not specified.
  Defaulting to calc_hartree .
  Pulay mixer: Number of relevant iterations not set.
  Defaulting to    8 iterations.
  Pulay mixer: Number of initial linear mixing iterations not set.
  Defaulting to    0 iterations.
  Work space size for distributed Hartree potential not set.
  Defaulting to   0.200000E+03 MB.
  Algorithm-dependent basis array size parameters:
  | n_max_pulay                         :        8
  Calculation of forces was not defined in control.in. No forces will be calculated.
  Geometry relaxation not requested: no relaxation will be performed.
  No accuracy limit for integral partition fn. given. Defaulting to 0.1000E-14.
  No threshold value for u(r) in integrations given. Defaulting to 0.1000E-05.
  No accuracy for occupation numbers given. Defaulting to 0.1000E-07.
  No threshold value for occupation numbers given. Defaulting to 0.0000E+00.
  No accuracy for fermi level given. Defaulting to 0.1000E-19.
  Maximum # of iterations to find E_F not set. Defaulting to  200.
  Will not use alltoall communication since running on < 1024 CPUs.
  Threshold for basis singularities not set.
  Default threshold for basis singularities: 0.1000E-04
  partition_type (choice of integration weights) for integrals was not specified.
  | Using a version of the partition function of Stratmann and coworkers ('stratmann_smoother').
  | At each grid point, the set of atoms used to build the partition table is smoothly restricted to
  | only those atoms whose free-atom density would be non-zero at that grid point.
  Partitioning for Hartree potential was not defined. Using partition_type for integrals.
  | Adjusted default value of keyword multip_moments_threshold to:       0.10000000E-11
  | This value may affect high angular momentum components of the Hartree potential in periodic systems.
  No q(lm)/r^(l+1) cutoff set for long-range Hartree potential.
  | Using default value of  0.100000E-09 .
  | Verify using the multipole_threshold keyword.
  Defaulting to new monopole extrapolation.
  Density update method: automatic selection selected.
------------------------------------------------------------


------------------------------------------------------------
          Reading geometry description geometry.in.
------------------------------------------------------------
  Input structure read successfully.
  The structure contains        2 atoms,  and a total of          2.000 electrons.

  Input geometry:
  | No unit cell requested.
  | Atomic structure:
  |       Atom                x [A]            y [A]            z [A]
  |    1: Species H              0.000000         0.000000         0.000000
  |    2: Species H              0.000000         0.000000         0.570000
  |

  | The smallest distance between any two atoms is         0.57000000 AA.
  |
  | The first atom of this pair is atom number                      1 .
  | The second atom of this pair is atom number                     2 .

  Initial moments and charges:
  |  Atom   Moment         Charge        Species
  |     1  (Hund's rule)   0.000000E+00   H
  |     2  (Hund's rule)   0.000000E+00   H

  Structure-dependent array size parameters: 
  | Number of distinct atom types in initial rho :        1
  | Maximum number of distinct radial functions  :        7
  | Maximum number of basis functions            :       30
  | Number of Kohn-Sham states (occupied + empty):       11
------------------------------------------------------------

------------------------------------------------------------
          Preparing all fixed parts of the calculation.
------------------------------------------------------------
  Determining machine precision:
    2.225073858507201E-308
  Setting up grids for atomic and cluster calculations.

  Creating wave function, potential, and density for free atoms.

  Species: H

  List of occupied orbitals and eigenvalues:
    n    l              occ      energy [Ha]    energy [eV]
    1    0           1.0000        -0.238386        -6.4868

  Spin-polarized or charged system:
  Charge density initialized according to selected moments and charges.

  Creating spin-polarized density from free atoms.

  Species: H
  Charge:   0.000000
  applying Hund's rules ...

  List of occupied orbitals and eigenvalues:
    n    l      energy [Ha]    energy [eV]    occupation
  Spin-up
    1    0        -0.278991        -7.5917     1.00000000
  Spin-down
    1    0         0.090850         2.4721     0.00000000

  Creating fixed part of basis set: Ionic, confined, hydrogenic.
 
  H                    hydrogenic:
 
  List of hydrogenic basis orbitals: 
    n    l      effective z      eigenvalue [eV]  inner max. [A]     outer max. [A]     outer radius [A]   
    2    0         2.100000       -14.9965           0.193243           1.317208           5.373006
    2    1         3.500000       -41.6672           0.602369           0.602369           4.056063
    1    0         0.850000        -9.8292           0.624871           0.624871           5.373006
    2    1         3.700000       -46.5653           0.573622           0.573622           3.910002
    2    0         1.200000        -4.5995           0.334980           2.228188           5.505995
    3    2         7.000000       -74.0753           0.680699           0.680699           3.769201
 

  Adding cutoff potential to free-atom effective potential.
  Creating atomic-like basis functions for current effective potential.

  Species H                   :

  List of atomic basis orbitals and eigenvalues:
    n    l      energy [Ha]    energy [eV]    outer radius [A]
    1    0        -0.238386        -6.4868       5.373006

  Assembling full basis from fixed parts.
  | Species H :   atomic orbital   1 s accepted.
  | Species H :    hydro orbital   2 s accepted.
  | Species H :    hydro orbital   1 s accepted.
  | Species H :    hydro orbital   2 s accepted.
  | Species H :    hydro orbital   2 p accepted.
  | Species H :    hydro orbital   2 p accepted.
  | Species H :    hydro orbital   3 d accepted.
 
  Basis size parameters after reduction:
  | Total number of radial functions:        7
  | Total number of basis functions :       30
 
  Testing on-site integration grid accuracy.
  |  Species  Function  <phi|h_atom|phi> (log., in eV)  <phi|h_atom|phi> (rad., in eV)
           1        1                 -6.4870767962                 -6.4871688290
           1        2                 13.5032046589                 13.5028982997
           1        3                 32.8195184817                 32.8119941656
           1        4                 33.8513856511                 33.7670005767 ***
           1        5                 28.8544614965                 28.8544615203
           1        6                 59.6326952547                 59.6327656460
           1        7                 60.2719308513                 60.2719305949
 * Note: Onsite integrals marked "***" above are less accurate than
 * onsite_accuracy_threshold =    0.03000 eV. Usually, this is harmless.
 * When in doubt, tighten the "radial" and/or "radial_multiplier" flags to check.

  Preparing densities etc. for the partition functions (integrals / Hartree potential).

  Preparations completed.
  max(cpu_time)          :      0.069 s.
  Wall clock time (cpu1) :      0.071 s.
------------------------------------------------------------

------------------------------------------------------------
          Begin self-consistency loop: Initialization.

          Date     :  20220120, Time     :  153124.153
------------------------------------------------------------

  Initializing index lists of integration centers etc. from given atomic structure:
  | Number of centers in hartree potential         :         2
  | Number of centers in hartree multipole         :         2
  | Number of centers in electron density summation:         2
  | Number of centers in basis integrals           :         2
  | Number of centers in integrals                 :         2
  Using modified Scalapack Eigenvalue solver (ELPA)
  * Using 8 tasks for Scalapack Eigenvalue solver.
  Detailed listing of tasks and assigned k-points:
  (for non-periodic systems, the "k-point" denotes an internal label only)
   Task     0 k-point     1 on csky038
   Task     1 k-point     1 on csky038
   Task     2 k-point     1 on csky038
   Task     3 k-point     1 on csky038
   Task     4 k-point     1 on csky038
   Task     5 k-point     1 on csky038
   Task     6 k-point     1 on csky038
   Task     7 k-point     1 on csky038
  Tasks:     8 split into      4 X      2 BLACS grid
  Calculating blocksize based on n_basis =           30 max_nprow =            4 max_npcol =            2
  Scalapack blocksize set to:            4
  Required Scalapack workspace - INTEGER:            1 REAL:             1
  Partitioning the integration grid into batches with parallel hashing+maxmin method.
  | Number of batches:      446
  | Maximal batch size:     198
  | Minimal batch size:      49
  | Average batch size:      64.798
  | Standard deviation of batch sizes:      18.269

  Integration load balanced across     8 MPI tasks.
  Work distribution over tasks is as follows:
  Task     0 has       3675 integration points.
  Task     1 has       3604 integration points.
  Task     2 has       3592 integration points.
  Task     3 has       3658 integration points.
  Task     4 has       3578 integration points.
  Task     5 has       3590 integration points.
  Task     6 has       3622 integration points.
  Task     7 has       3581 integration points.
  Initializing partition tables, free-atom densities, potentials, etc. across the integration grid (initialize_grid_storage).
  | initialize_grid_storage: Actual outermost partition radius vs. multipole_radius_free
  | (-- VB: in principle, multipole_radius_free should be larger, hence this output)
  | Species        1: outer_partition_radius =              6.000000000000000 AA, multipole_radius_free =              6.071692442739658 AA.
  | Original list of interatomic distances with           2 x          2 entries is created.
  | Net number of integration points:    28900
  | of which are non-zero points    :    26166
  Obtaining max. number of non-zero basis functions in each batch (get_n_compute_maxes).
  | Maximal number of non-zero basis functions:       30 in task     0
  | Maximal number of non-zero basis functions:       30 in task     1
  | Maximal number of non-zero basis functions:       30 in task     2
  | Maximal number of non-zero basis functions:       30 in task     3
  | Maximal number of non-zero basis functions:       30 in task     4
  | Maximal number of non-zero basis functions:       30 in task     5
  | Maximal number of non-zero basis functions:       30 in task     6
  | Maximal number of non-zero basis functions:       30 in task     7
  Selecting the method for density update.
  Loop over occupied states selected for charge density update.
  Integrating Hamiltonian matrix: batch-based integration.
  Time summed over all CPUs for integration: real work        0.075 s, elapsed        0.082 s
  Integrating overlap matrix.
  Time summed over all CPUs for integration: real work        0.018 s, elapsed        0.021 s
  Deallocating overlap matrix.

  Updating Kohn-Sham eigenvalues, eigenvectors, occupation numbers, and Fermi level.
  Solving generalized eigenproblem
  Solving real symmetric generalised eigenvalue problem by standard ScaLAPACK.
  Transforming overlap matrix with ScaLAPACK and checking for singularities.
  : Overlap matrix is nonsingular, using Cholesky decomposition
  | Lowest eigenvalue:  0.995752E-04
  Factoring overlap matrix with Cholesky decomposition
  Using Cholesky factor for transformation
  Using 1-stage real ELPA solver
  Solving real symmetric generalised eigenvalue problem by standard ScaLAPACK.
  Using Cholesky factor for transformation
  Using 1-stage real ELPA solver
  Determining occupation numbers for Kohn-Sham eigenstates.
  | Chemical potential (Fermi level) in eV                 : -.49514039E+00
  | Error in electron count due to remaining E_F inaccuracy: 0.00000000E+00
  | Maximum occupation number of highest empty state:  0.00E+00

  Writing Kohn-Sham eigenvalues.

  Spin-up eigenvalues:

  State    Occupation    Eigenvalue [Ha]    Eigenvalue [eV]
      1       1.00000          -0.683404          -18.59637
      2       1.00000          -0.024072           -0.65502
      3       0.00000           0.001777            0.04835
      4       0.00000           0.125641            3.41887
      5       0.00000           0.205141            5.58218
      6       0.00000           0.205141            5.58218
      7       0.00000           0.278084            7.56705
      8       0.00000           0.510000           13.87779
      9       0.00000           0.690947           18.80162
     10       0.00000           0.690947           18.80162
     11       0.00000           0.698840           19.01641

  Spin-down eigenvalues:

  State    Occupation    Eigenvalue [Ha]    Eigenvalue [eV]
      1       0.00000           0.099173            2.69864
      2       0.00000           0.114521            3.11627
      3       0.00000           0.502990           13.68705
      4       0.00000           0.530257           14.42902
      5       0.00000           1.169028           31.81086
      6       0.00000           1.174496           31.95966
      7       0.00000           1.174496           31.95966
      8       0.00000           1.493907           40.65129
      9       0.00000           1.493907           40.65129
     10       0.00000           1.570235           42.72828
     11       0.00000           1.646859           44.81332

  Current spin moment of the entire structure :
  | N = N_up - N_down :    2.00
  | S                 :    1.00
  | J                 :    3.00

  Highest occupied state (VBM) at     -0.65502479 eV
  | Occupation number:      1.00000000
  | Spin channel:        1

  Lowest unoccupied state (CBM) at     0.04835267 eV
  | Occupation number:      0.00000000
  | Spin channel:        1

  Overall HOMO-LUMO gap:      0.70337746 eV.
  Calculating total energy contributions from superposition of free atom densities.

  Total energy components:
  | Sum of eigenvalues            :          -0.70747580 Ha         -19.25139594 eV
  | XC energy correction          :          -0.70468193 Ha         -19.17537097 eV
  | XC potential correction       :           0.90972631 Ha          24.75491241 eV
  | Free-atom electrostatic energy:          -0.16400703 Ha          -4.46285840 eV
  | Hartree energy correction     :           0.00000000 Ha           0.00000000 eV
  | van der Waals energy corr.    :           0.00000000 Ha           0.00000000 eV
  | Entropy correction            :           0.00000000 Ha           0.00000000 eV
  | ---------------------------
  | Total energy                  :          -0.66643845 Ha         -18.13471290 eV
  | Total energy, T -> 0          :          -0.66643845 Ha         -18.13471290 eV  <-- do not rely on this value for anything but (periodic) metals
  | Electronic free energy        :          -0.66643845 Ha         -18.13471290 eV

  Derived energy quantities:
  | Kinetic energy                :           1.25958064 Ha          34.27493303 eV
  | Electrostatic energy          :          -1.22133716 Ha         -33.23427496 eV
  | Energy correction for multipole
  | error in Hartree potential    :           0.00000000 Ha           0.00000000 eV
  | Sum of eigenvalues per atom                           :          -9.62569797 eV
  | Total energy (T->0) per atom                          :          -9.06735645 eV  <-- do not rely on this value for anything but (periodic) metals
  | Electronic free energy per atom                       :          -9.06735645 eV
  Initialize hartree_potential_storage
  Max. number of atoms included in rho_multipole:            2

  End scf initialization - timings             :  max(cpu_time)    wall_clock(cpu1)
  | Time for scf. initialization               :        0.037 s           0.037 s
  | Boundary condition initialization          :        0.000 s           0.000 s
  | Integration                                :        0.013 s           0.013 s
  | Solution of K.-S. eqns.                    :        0.007 s           0.007 s
  | Grid partitioning                          :        0.006 s           0.006 s
  | Preloading free-atom quantities on grid    :        0.003 s           0.003 s
  | Free-atom superposition energy             :        0.002 s           0.002 s
  | Total energy evaluation                    :        0.000 s           0.001 s
------------------------------------------------------------

------------------------------------------------------------
          Begin self-consistency iteration #    1

  Date     :  20220120, Time     :  153124.190
------------------------------------------------------------
  Evaluating new KS density.
  Integration grid: deviation in total charge (<rho> - N_e) =   4.034403E-07
  | <rho_up-rho_dn> = N_up-N_dn =      2.0000; <|rho_up-rho_dn|> =      2.1757
  Pulay mixing of updated and previous charge densities.

  Evaluating partitioned Hartree potential by multipole expansion.
  | Analytical far-field extrapolation by fixed multipoles:
  | Hartree multipole sum: apparent total charge =  -0.121777E-04
  Summing up the Hartree potential.
  Time summed over all CPUs for potential: real work        0.031 s, elapsed        0.032 s
  | RMS charge density error from multipole expansion :   0.836564E-03

  Integrating Hamiltonian matrix: batch-based integration.
  Time summed over all CPUs for integration: real work        0.061 s, elapsed        0.063 s

  Updating Kohn-Sham eigenvalues, eigenvectors, occupation numbers, and Fermi level.
  Solving generalized eigenproblem
  Solving real symmetric generalised eigenvalue problem by standard ScaLAPACK.
  Using Cholesky factor for transformation
  Using 1-stage real ELPA solver
  Solving real symmetric generalised eigenvalue problem by standard ScaLAPACK.
  Using Cholesky factor for transformation
  Using 1-stage real ELPA solver
  Determining occupation numbers for Kohn-Sham eigenstates.
  | Chemical potential (Fermi level) in eV                 : -.68529203E+01
  | Error in electron count due to remaining E_F inaccuracy: 0.00000000E+00
  | Maximum occupation number of highest empty state:  0.00E+00

  Writing Kohn-Sham eigenvalues.

  Spin-up eigenvalues:

  State    Occupation    Eigenvalue [Ha]    Eigenvalue [eV]
      1       1.00000          -0.548759          -14.93248
      2       0.00000           0.063996            1.74143
      3       0.00000           0.064377            1.75178
      4       0.00000           0.179865            4.89437
      5       0.00000           0.224370            6.10542
      6       0.00000           0.224370            6.10542
      7       0.00000           0.343397            9.34429
      8       0.00000           0.580266           15.78985
      9       0.00000           0.751111           20.43878
     10       0.00000           0.751111           20.43878
     11       0.00000           0.815734           22.19726

  Spin-down eigenvalues:

  State    Occupation    Eigenvalue [Ha]    Eigenvalue [eV]
      1       1.00000          -0.341369           -9.28913
      2       0.00000           0.080812            2.19900
      3       0.00000           0.089094            2.42437
      4       0.00000           0.246681            6.71254
      5       0.00000           0.333652            9.07913
      6       0.00000           0.333652            9.07913
      7       0.00000           0.398608           10.84667
      8       0.00000           0.695880           18.93585
      9       0.00000           0.835419           22.73292
     10       0.00000           0.835419           22.73292
     11       0.00000           0.883436           24.03952

  Current spin moment of the entire structure :
  | N = N_up - N_down :    0.00
  | S                 :    0.00
  | J                 :    1.00

  Highest occupied state (VBM) at     -9.28912987 eV
  | Occupation number:      1.00000000
  | Spin channel:        2

  Lowest unoccupied state (CBM) at     1.74143310 eV
  | Occupation number:      0.00000000
  | Spin channel:        1

  Overall HOMO-LUMO gap:     11.03056297 eV.

  Total energy components:
  | Sum of eigenvalues            :          -0.89012784 Ha         -24.22161086 eV
  | XC energy correction          :          -0.47031091 Ha         -12.79781088 eV
  | XC potential correction       :           0.60454649 Ha          16.45054706 eV
  | Free-atom electrostatic energy:          -0.16400703 Ha          -4.46285840 eV
  | Hartree energy correction     :           0.04112508 Ha           1.11907044 eV
  | van der Waals energy corr.    :           0.00000000 Ha           0.00000000 eV
  | Entropy correction            :           0.00000000 Ha           0.00000000 eV
  | ---------------------------
  | Total energy                  :          -0.87877420 Ha         -23.91266264 eV
  | Total energy, T -> 0          :          -0.87877420 Ha         -23.91266264 eV  <-- do not rely on this value for anything but (periodic) metals
  | Electronic free energy        :          -0.87877420 Ha         -23.91266264 eV

  Derived energy quantities:
  | Kinetic energy                :           0.86957239 Ha          23.66226871 eV
  | Electrostatic energy          :          -1.27803569 Ha         -34.77712046 eV
  | Energy correction for multipole
  | error in Hartree potential    :          -0.00013236 Ha          -0.00360171 eV
  | Sum of eigenvalues per atom                           :         -12.11080543 eV
  | Total energy (T->0) per atom                          :         -11.95633132 eV  <-- do not rely on this value for anything but (periodic) metals
  | Electronic free energy per atom                       :         -11.95633132 eV

  Self-consistency convergence accuracy:
  | Change of charge/spin density : 0.7370E-01 0.7370E-01
  | Change of sum of eigenvalues  : -.4970E+01 eV
  | Change of total energy        : -.5778E+01 eV

  End self-consistency iteration #     1       :  max(cpu_time)    wall_clock(cpu1)
  | Time for this iteration                    :        0.024 s           0.024 s
  | Charge density update                      :        0.006 s           0.006 s
  | Density mixing                             :        0.001 s           0.001 s
  | Hartree multipole update                   :        0.001 s           0.001 s
  | Hartree multipole summation                :        0.005 s           0.005 s
  | Integration                                :        0.008 s           0.008 s
  | Solution of K.-S. eqns.                    :        0.001 s           0.001 s
  | Total energy evaluation                    :        0.000 s           0.001 s
------------------------------------------------------------

------------------------------------------------------------
          Begin self-consistency iteration #    2

  Date     :  20220120, Time     :  153124.218
------------------------------------------------------------
  Evaluating new KS density.
  Integration grid: deviation in total charge (<rho> - N_e) =   2.420642E-07
  | <rho_up-rho_dn> = N_up-N_dn =     -2.0000; <|rho_up-rho_dn|> =      2.0000
  Pulay mixing of updated and previous charge densities.

  Evaluating partitioned Hartree potential by multipole expansion.
  | Analytical far-field extrapolation by fixed multipoles:
  | Hartree multipole sum: apparent total charge =  -0.119076E-04
  Summing up the Hartree potential.
  Time summed over all CPUs for potential: real work        0.030 s, elapsed        0.031 s
  | RMS charge density error from multipole expansion :   0.813614E-03

  Integrating Hamiltonian matrix: batch-based integration.
  Time summed over all CPUs for integration: real work        0.062 s, elapsed        0.064 s

  Updating Kohn-Sham eigenvalues, eigenvectors, occupation numbers, and Fermi level.
  Solving generalized eigenproblem
  Solving real symmetric generalised eigenvalue problem by standard ScaLAPACK.
  Using Cholesky factor for transformation
  Using 1-stage real ELPA solver
  Solving real symmetric generalised eigenvalue problem by standard ScaLAPACK.
  Using Cholesky factor for transformation
  Using 1-stage real ELPA solver
  Determining occupation numbers for Kohn-Sham eigenstates.
  | Chemical potential (Fermi level) in eV                 : -.97783525E+01
  | Error in electron count due to remaining E_F inaccuracy: 0.00000000E+00
  | Maximum occupation number of highest empty state:  0.00E+00

  Current spin moment of the entire structure :
  | N = N_up - N_down :    0.00
  | S                 :    0.00
  | J                 :    1.00

  Highest occupied state (VBM) at    -11.24085623 eV
  | Occupation number:      1.00000000
  | Spin channel:        2

  Lowest unoccupied state (CBM) at     1.31894379 eV
  | Occupation number:      0.00000000
  | Spin channel:        1

  Overall HOMO-LUMO gap:     12.55980002 eV.

  Total energy components:
  | Sum of eigenvalues            :          -1.09189883 Ha         -29.71207895 eV
  | XC energy correction          :          -0.59462739 Ha         -16.18063462 eV
  | XC potential correction       :           0.76749369 Ha          20.88456577 eV
  | Free-atom electrostatic energy:          -0.16400703 Ha          -4.46285840 eV
  | Hartree energy correction     :           0.03454804 Ha           0.94009999 eV
  | van der Waals energy corr.    :           0.00000000 Ha           0.00000000 eV
  | Entropy correction            :           0.00000000 Ha           0.00000000 eV
  | ---------------------------
  | Total energy                  :          -1.04849153 Ha         -28.53090620 eV
  | Total energy, T -> 0          :          -1.04849153 Ha         -28.53090620 eV  <-- do not rely on this value for anything but (periodic) metals
  | Electronic free energy        :          -1.04849153 Ha         -28.53090620 eV

  Derived energy quantities:
  | Kinetic energy                :           0.83266518 Ha          22.65797238 eV
  | Electrostatic energy          :          -1.28652932 Ha         -35.00824395 eV
  | Energy correction for multipole
  | error in Hartree potential    :          -0.00012670 Ha          -0.00344756 eV
  | Sum of eigenvalues per atom                           :         -14.85603947 eV
  | Total energy (T->0) per atom                          :         -14.26545310 eV  <-- do not rely on this value for anything but (periodic) metals
  | Electronic free energy per atom                       :         -14.26545310 eV

  Self-consistency convergence accuracy:
  | Change of charge/spin density : 0.1335E+00 0.3045E+00
  | Change of sum of eigenvalues  : -.5490E+01 eV
  | Change of total energy        : -.4618E+01 eV

  End self-consistency iteration #     2       :  max(cpu_time)    wall_clock(cpu1)
  | Time for this iteration                    :        0.023 s           0.022 s
  | Charge density update                      :        0.006 s           0.006 s
  | Density mixing                             :        0.001 s           0.000 s
  | Hartree multipole update                   :        0.001 s           0.002 s
  | Hartree multipole summation                :        0.004 s           0.004 s
  | Integration                                :        0.008 s           0.008 s
  | Solution of K.-S. eqns.                    :        0.001 s           0.002 s
  | Total energy evaluation                    :        0.000 s           0.000 s
------------------------------------------------------------

------------------------------------------------------------
          Begin self-consistency iteration #    3

  Date     :  20220120, Time     :  153124.242
------------------------------------------------------------
  Evaluating new KS density.
  Integration grid: deviation in total charge (<rho> - N_e) =   2.369115E-07
  | <rho_up-rho_dn> = N_up-N_dn =     -1.9361; <|rho_up-rho_dn|> =      1.9361
  Pulay mixing of updated and previous charge densities.

  Evaluating partitioned Hartree potential by multipole expansion.
  | Analytical far-field extrapolation by fixed multipoles:
  | Hartree multipole sum: apparent total charge =  -0.120628E-04
  Summing up the Hartree potential.
  Time summed over all CPUs for potential: real work        0.030 s, elapsed        0.031 s
  | RMS charge density error from multipole expansion :   0.753541E-03

  Integrating Hamiltonian matrix: batch-based integration.
  Time summed over all CPUs for integration: real work        0.061 s, elapsed        0.064 s

  Updating Kohn-Sham eigenvalues, eigenvectors, occupation numbers, and Fermi level.
  Solving generalized eigenproblem
  Solving real symmetric generalised eigenvalue problem by standard ScaLAPACK.
  Using Cholesky factor for transformation
  Using 1-stage real ELPA solver
  Solving real symmetric generalised eigenvalue problem by standard ScaLAPACK.
  Using Cholesky factor for transformation
  Using 1-stage real ELPA solver
  Determining occupation numbers for Kohn-Sham eigenstates.
  | Chemical potential (Fermi level) in eV                 : -.83298379E+01
  | Error in electron count due to remaining E_F inaccuracy: 0.00000000E+00
  | Maximum occupation number of highest empty state:  0.00E+00

  Current spin moment of the entire structure :
  | N = N_up - N_down :    0.00
  | S                 :    0.00
  | J                 :    1.00

  Highest occupied state (VBM) at    -10.39477597 eV
  | Occupation number:      1.00000000
  | Spin channel:        2

  Lowest unoccupied state (CBM) at     1.31167649 eV
  | Occupation number:      0.00000000
  | Spin channel:        1

  Overall HOMO-LUMO gap:     11.70645245 eV.

  Total energy components:
  | Sum of eigenvalues            :          -0.99361386 Ha         -27.03760868 eV
  | XC energy correction          :          -0.53442778 Ha         -14.54251975 eV
  | XC potential correction       :           0.68833754 Ha          18.73061748 eV
  | Free-atom electrostatic energy:          -0.16400703 Ha          -4.46285840 eV
  | Hartree energy correction     :           0.04498311 Ha           1.22405280 eV
  | van der Waals energy corr.    :           0.00000000 Ha           0.00000000 eV
  | Entropy correction            :           0.00000000 Ha           0.00000000 eV
  | ---------------------------
  | Total energy                  :          -0.95872801 Ha         -26.08831654 eV
  | Total energy, T -> 0          :          -0.95872801 Ha         -26.08831654 eV  <-- do not rely on this value for anything but (periodic) metals
  | Electronic free energy        :          -0.95872801 Ha         -26.08831654 eV

  Derived energy quantities:
  | Kinetic energy                :           0.83661413 Ha          22.76542875 eV
  | Electrostatic energy          :          -1.26091436 Ha         -34.31122554 eV
  | Energy correction for multipole
  | error in Hartree potential    :          -0.00011468 Ha          -0.00312053 eV
  | Sum of eigenvalues per atom                           :         -13.51880434 eV
  | Total energy (T->0) per atom                          :         -13.04415827 eV  <-- do not rely on this value for anything but (periodic) metals
  | Electronic free energy per atom                       :         -13.04415827 eV

  Self-consistency convergence accuracy:
  | Change of charge/spin density : 0.2085E+00 0.2790E+00
  | Change of sum of eigenvalues  : 0.2674E+01 eV
  | Change of total energy        : 0.2443E+01 eV

  End self-consistency iteration #     3       :  max(cpu_time)    wall_clock(cpu1)
  | Time for this iteration                    :        0.023 s           0.022 s
  | Charge density update                      :        0.006 s           0.005 s
  | Density mixing                             :        0.001 s           0.001 s
  | Hartree multipole update                   :        0.001 s           0.002 s
  | Hartree multipole summation                :        0.004 s           0.004 s
  | Integration                                :        0.008 s           0.008 s
  | Solution of K.-S. eqns.                    :        0.001 s           0.001 s
  | Total energy evaluation                    :        0.000 s           0.000 s
------------------------------------------------------------

------------------------------------------------------------
          Begin self-consistency iteration #    4

  Date     :  20220120, Time     :  153124.268
------------------------------------------------------------
  Evaluating new KS density.
  Integration grid: deviation in total charge (<rho> - N_e) =   2.379039E-07
  | <rho_up-rho_dn> = N_up-N_dn =     -1.9453; <|rho_up-rho_dn|> =      1.9453
  Pulay mixing of updated and previous charge densities.

  Evaluating partitioned Hartree potential by multipole expansion.
  | Analytical far-field extrapolation by fixed multipoles:
  | Hartree multipole sum: apparent total charge =  -0.119632E-04
  Summing up the Hartree potential.
  Time summed over all CPUs for potential: real work        0.030 s, elapsed        0.031 s
  | RMS charge density error from multipole expansion :   0.735438E-03

  Integrating Hamiltonian matrix: batch-based integration.
  Time summed over all CPUs for integration: real work        0.062 s, elapsed        0.065 s

  Updating Kohn-Sham eigenvalues, eigenvectors, occupation numbers, and Fermi level.
  Solving generalized eigenproblem
  Solving real symmetric generalised eigenvalue problem by standard ScaLAPACK.
  Using Cholesky factor for transformation
  Using 1-stage real ELPA solver
  Solving real symmetric generalised eigenvalue problem by standard ScaLAPACK.
  Using Cholesky factor for transformation
  Using 1-stage real ELPA solver
  Determining occupation numbers for Kohn-Sham eigenstates.
  | Chemical potential (Fermi level) in eV                 : -.82445720E+01
  | Error in electron count due to remaining E_F inaccuracy: 0.00000000E+00
  | Maximum occupation number of highest empty state:  0.00E+00

  Current spin moment of the entire structure :
  | N = N_up - N_down :    0.00
  | S                 :    0.00
  | J                 :    1.00

  Highest occupied state (VBM) at    -12.19719604 eV
  | Occupation number:      1.00000000
  | Spin channel:        2

  Lowest unoccupied state (CBM) at     0.27792421 eV
  | Occupation number:      0.00000000
  | Spin channel:        1

  Overall HOMO-LUMO gap:     12.47512025 eV.

  Total energy components:
  | Sum of eigenvalues            :          -1.03668796 Ha         -28.20971461 eV
  | XC energy correction          :          -0.50345750 Ha         -13.69977573 eV
  | XC potential correction       :           0.64787396 Ha          17.62954744 eV
  | Free-atom electrostatic energy:          -0.16400703 Ha          -4.46285840 eV
  | Hartree energy correction     :           0.09901041 Ha           2.69421042 eV
  | van der Waals energy corr.    :           0.00000000 Ha           0.00000000 eV
  | Entropy correction            :           0.00000000 Ha           0.00000000 eV
  | ---------------------------
  | Total energy                  :          -0.95726812 Ha         -26.04859088 eV
  | Total energy, T -> 0          :          -0.95726812 Ha         -26.04859088 eV  <-- do not rely on this value for anything but (periodic) metals
  | Electronic free energy        :          -0.95726812 Ha         -26.04859088 eV

  Derived energy quantities:
  | Kinetic energy                :           0.55976498 Ha          15.23197998 eV
  | Electrostatic energy          :          -1.01357559 Ha         -27.58079513 eV
  | Energy correction for multipole
  | error in Hartree potential    :           0.00006718 Ha           0.00182798 eV
  | Sum of eigenvalues per atom                           :         -14.10485730 eV
  | Total energy (T->0) per atom                          :         -13.02429544 eV  <-- do not rely on this value for anything but (periodic) metals
  | Electronic free energy per atom                       :         -13.02429544 eV

  Self-consistency convergence accuracy:
  | Change of charge/spin density : 0.1673E+00 0.2875E+00
  | Change of sum of eigenvalues  : -.1172E+01 eV
  | Change of total energy        : 0.3973E-01 eV

  End self-consistency iteration #     4       :  max(cpu_time)    wall_clock(cpu1)
  | Time for this iteration                    :        0.023 s           0.022 s
  | Charge density update                      :        0.006 s           0.005 s
  | Density mixing                             :        0.001 s           0.001 s
  | Hartree multipole update                   :        0.001 s           0.002 s
  | Hartree multipole summation                :        0.004 s           0.004 s
  | Integration                                :        0.008 s           0.008 s
  | Solution of K.-S. eqns.                    :        0.001 s           0.001 s
  | Total energy evaluation                    :        0.000 s           0.000 s
------------------------------------------------------------

------------------------------------------------------------
          Begin self-consistency iteration #    5

  Date     :  20220120, Time     :  153124.292
------------------------------------------------------------
  Evaluating new KS density.
  Integration grid: deviation in total charge (<rho> - N_e) =   2.110290E-07
  | <rho_up-rho_dn> = N_up-N_dn =     -1.6482; <|rho_up-rho_dn|> =      1.6482
  Pulay mixing of updated and previous charge densities.

  Evaluating partitioned Hartree potential by multipole expansion.
  | Analytical far-field extrapolation by fixed multipoles:
  | Hartree multipole sum: apparent total charge =  -0.126505E-04
  Summing up the Hartree potential.
  Time summed over all CPUs for potential: real work        0.030 s, elapsed        0.031 s
  | RMS charge density error from multipole expansion :   0.557316E-02

  Integrating Hamiltonian matrix: batch-based integration.
  Time summed over all CPUs for integration: real work        0.065 s, elapsed        0.068 s

  Updating Kohn-Sham eigenvalues, eigenvectors, occupation numbers, and Fermi level.
  Solving generalized eigenproblem
  Solving real symmetric generalised eigenvalue problem by standard ScaLAPACK.
  Using Cholesky factor for transformation
  Using 1-stage real ELPA solver
  Solving real symmetric generalised eigenvalue problem by standard ScaLAPACK.
  Using Cholesky factor for transformation
  Using 1-stage real ELPA solver
  Determining occupation numbers for Kohn-Sham eigenstates.
  | Chemical potential (Fermi level) in eV                 : -.18634058E+02
  | Error in electron count due to remaining E_F inaccuracy: 0.00000000E+00
  | Maximum occupation number of highest empty state:  0.00E+00

  Current spin moment of the entire structure :
  | N = N_up - N_down :    0.00
  | S                 :    0.00
  | J                 :    1.00

  Highest occupied state (VBM) at    -20.22932652 eV
  | Occupation number:      1.00000000
  | Spin channel:        2

  Lowest unoccupied state (CBM) at    -1.84252757 eV
  | Occupation number:      0.00000000
  | Spin channel:        1

  Overall HOMO-LUMO gap:     18.38679895 eV.

  Total energy components:
  | Sum of eigenvalues            :          -1.53380854 Ha         -41.73705389 eV
  | XC energy correction          :          -0.66581184 Ha         -18.11766204 eV
  | XC potential correction       :           0.85533985 Ha          23.27498153 eV
  | Free-atom electrostatic energy:          -0.16400703 Ha          -4.46285840 eV
  | Hartree energy correction     :           0.15783998 Ha           4.29504450 eV
  | van der Waals energy corr.    :           0.00000000 Ha           0.00000000 eV
  | Entropy correction            :           0.00000000 Ha           0.00000000 eV
  | ---------------------------
  | Total energy                  :          -1.35044758 Ha         -36.74754830 eV
  | Total energy, T -> 0          :          -1.35044758 Ha         -36.74754830 eV  <-- do not rely on this value for anything but (periodic) metals
  | Electronic free energy        :          -1.35044758 Ha         -36.74754830 eV

  Derived energy quantities:
  | Kinetic energy                :          -1.19120799 Ha         -32.41441864 eV
  | Electrostatic energy          :           0.50657225 Ha          13.78453239 eV
  | Energy correction for multipole
  | error in Hartree potential    :           0.00095039 Ha           0.02586146 eV
  | Sum of eigenvalues per atom                           :         -20.86852694 eV
  | Total energy (T->0) per atom                          :         -18.37377415 eV  <-- do not rely on this value for anything but (periodic) metals
  | Electronic free energy per atom                       :         -18.37377415 eV

  Self-consistency convergence accuracy:
  | Change of charge/spin density : 0.2341E+00 0.2392E+00
  | Change of sum of eigenvalues  : -.1353E+02 eV
  | Change of total energy        : -.1070E+02 eV

  End self-consistency iteration #     5       :  max(cpu_time)    wall_clock(cpu1)
  | Time for this iteration                    :        0.024 s           0.023 s
  | Charge density update                      :        0.006 s           0.005 s
  | Density mixing                             :        0.001 s           0.002 s
  | Hartree multipole update                   :        0.001 s           0.001 s
  | Hartree multipole summation                :        0.005 s           0.004 s
  | Integration                                :        0.009 s           0.009 s
  | Solution of K.-S. eqns.                    :        0.001 s           0.002 s
  | Total energy evaluation                    :        0.000 s           0.000 s
------------------------------------------------------------

------------------------------------------------------------
          Begin self-consistency iteration #    6

  Date     :  20220120, Time     :  153124.318
------------------------------------------------------------
  Evaluating new KS density.
  Integration grid: deviation in total charge (<rho> - N_e) =   9.997279E-08
  | <rho_up-rho_dn> = N_up-N_dn =     -0.5636; <|rho_up-rho_dn|> =      0.9874
  Pulay mixing of updated and previous charge densities.

  Evaluating partitioned Hartree potential by multipole expansion.
  | Analytical far-field extrapolation by fixed multipoles:
  | Hartree multipole sum: apparent total charge =  -0.155320E-04
  Summing up the Hartree potential.
  Time summed over all CPUs for potential: real work        0.030 s, elapsed        0.031 s
  | RMS charge density error from multipole expansion :   0.930183E-02

  Integrating Hamiltonian matrix: batch-based integration.
  Time summed over all CPUs for integration: real work        0.065 s, elapsed        0.068 s

  Updating Kohn-Sham eigenvalues, eigenvectors, occupation numbers, and Fermi level.
  Solving generalized eigenproblem
  Solving real symmetric generalised eigenvalue problem by standard ScaLAPACK.
  Using Cholesky factor for transformation
  Using 1-stage real ELPA solver
  Solving real symmetric generalised eigenvalue problem by standard ScaLAPACK.
  Using Cholesky factor for transformation
  Using 1-stage real ELPA solver
  Determining occupation numbers for Kohn-Sham eigenstates.
  | Chemical potential (Fermi level) in eV                 : -.25945665E+02
  | Error in electron count due to remaining E_F inaccuracy: 0.00000000E+00
  | Maximum occupation number of highest empty state:  0.00E+00

  Current spin moment of the entire structure :
  | N = N_up - N_down :    0.00
  | S                 :    0.00
  | J                 :    1.00

  Highest occupied state (VBM) at    -28.16206373 eV
  | Occupation number:      1.00000000
  | Spin channel:        2

  Lowest unoccupied state (CBM) at    -3.80397520 eV
  | Occupation number:      0.00000000
  | Spin channel:        1

  Overall HOMO-LUMO gap:     24.35808853 eV.

  Total energy components:
  | Sum of eigenvalues            :          -2.11009345 Ha         -57.41856431 eV
  | XC energy correction          :          -0.83215379 Ha         -22.64405671 eV
  | XC potential correction       :           1.07023985 Ha          29.12270810 eV
  | Free-atom electrostatic energy:          -0.16400703 Ha          -4.46285840 eV
  | Hartree energy correction     :          -0.03566453 Ha          -0.97048136 eV
  | van der Waals energy corr.    :           0.00000000 Ha           0.00000000 eV
  | Entropy correction            :           0.00000000 Ha           0.00000000 eV
  | ---------------------------
  | Total energy                  :          -2.07167896 Ha         -56.37325267 eV
  | Total energy, T -> 0          :          -2.07167896 Ha         -56.37325267 eV  <-- do not rely on this value for anything but (periodic) metals
  | Electronic free energy        :          -2.07167896 Ha         -56.37325267 eV

  Derived energy quantities:
  | Kinetic energy                :          -3.25851496 Ha         -88.66870360 eV
  | Electrostatic energy          :           2.01898980 Ha          54.93950764 eV
  | Energy correction for multipole
  | error in Hartree potential    :           0.00159920 Ha           0.04351632 eV
  | Sum of eigenvalues per atom                           :         -28.70928215 eV
  | Total energy (T->0) per atom                          :         -28.18662633 eV  <-- do not rely on this value for anything but (periodic) metals
  | Electronic free energy per atom                       :         -28.18662633 eV

  Self-consistency convergence accuracy:
  | Change of charge/spin density : 0.8312E+00 0.2290E+00
  | Change of sum of eigenvalues  : -.1568E+02 eV
  | Change of total energy        : -.1963E+02 eV

  End self-consistency iteration #     6       :  max(cpu_time)    wall_clock(cpu1)
  | Time for this iteration                    :        0.024 s           0.023 s
  | Charge density update                      :        0.006 s           0.005 s
  | Density mixing                             :        0.001 s           0.002 s
  | Hartree multipole update                   :        0.001 s           0.001 s
  | Hartree multipole summation                :        0.004 s           0.004 s
  | Integration                                :        0.009 s           0.009 s
  | Solution of K.-S. eqns.                    :        0.001 s           0.001 s
  | Total energy evaluation                    :        0.000 s           0.000 s
------------------------------------------------------------

------------------------------------------------------------
          Begin self-consistency iteration #    7

  Date     :  20220120, Time     :  153124.343
------------------------------------------------------------
  Evaluating new KS density.
  Integration grid: deviation in total charge (<rho> - N_e) =   6.802197E-08
  | <rho_up-rho_dn> = N_up-N_dn =     -0.3660; <|rho_up-rho_dn|> =      1.2646
  Pulay mixing of updated and previous charge densities.

  Evaluating partitioned Hartree potential by multipole expansion.
  | Analytical far-field extrapolation by fixed multipoles:
  | Hartree multipole sum: apparent total charge =  -0.187141E-04
  Summing up the Hartree potential.
  Time summed over all CPUs for potential: real work        0.030 s, elapsed        0.032 s
  | RMS charge density error from multipole expansion :   0.126190E-01

  Integrating Hamiltonian matrix: batch-based integration.
  Time summed over all CPUs for integration: real work        0.065 s, elapsed        0.068 s

  Updating Kohn-Sham eigenvalues, eigenvectors, occupation numbers, and Fermi level.
  Solving generalized eigenproblem
  Solving real symmetric generalised eigenvalue problem by standard ScaLAPACK.
  Using Cholesky factor for transformation
  Using 1-stage real ELPA solver
  Solving real symmetric generalised eigenvalue problem by standard ScaLAPACK.
  Using Cholesky factor for transformation
  Using 1-stage real ELPA solver
  Determining occupation numbers for Kohn-Sham eigenstates.
  | Chemical potential (Fermi level) in eV                 : -.33879199E+02
  | Error in electron count due to remaining E_F inaccuracy: 0.00000000E+00
  | Maximum occupation number of highest empty state:  0.00E+00

  Current spin moment of the entire structure :
  | N = N_up - N_down :    0.00
  | S                 :    0.00
  | J                 :    1.00

  Highest occupied state (VBM) at    -36.74721923 eV
  | Occupation number:      1.00000000
  | Spin channel:        2

  Lowest unoccupied state (CBM) at    -6.49123205 eV
  | Occupation number:      0.00000000
  | Spin channel:        1

  Overall HOMO-LUMO gap:     30.25598718 eV.

  Total energy components:
  | Sum of eigenvalues            :          -2.73553022 Ha         -74.43756456 eV
  | XC energy correction          :          -1.00100254 Ha         -27.23866506 eV
  | XC potential correction       :           1.28860295 Ha          35.06467023 eV
  | Free-atom electrostatic energy:          -0.16400703 Ha          -4.46285840 eV
  | Hartree energy correction     :          -0.44135589 Ha         -12.00990476 eV
  | van der Waals energy corr.    :           0.00000000 Ha           0.00000000 eV
  | Entropy correction            :           0.00000000 Ha           0.00000000 eV
  | ---------------------------
  | Total energy                  :          -3.05329273 Ha         -83.08432256 eV
  | Total energy, T -> 0          :          -3.05329273 Ha         -83.08432256 eV  <-- do not rely on this value for anything but (periodic) metals
  | Electronic free energy        :          -3.05329273 Ha         -83.08432256 eV

  Derived energy quantities:
  | Kinetic energy                :          -5.69236371 Ha        -154.89709771 eV
  | Electrostatic energy          :           3.64007352 Ha          99.05144021 eV
  | Energy correction for multipole
  | error in Hartree potential    :           0.00216565 Ha           0.05893047 eV
  | Sum of eigenvalues per atom                           :         -37.21878228 eV
  | Total energy (T->0) per atom                          :         -41.54216128 eV  <-- do not rely on this value for anything but (periodic) metals
  | Electronic free energy per atom                       :         -41.54216128 eV

  Self-consistency convergence accuracy:
  | Change of charge/spin density : 0.1323E+01 0.3998E+00
  | Change of sum of eigenvalues  : -.1702E+02 eV
  | Change of total energy        : -.2671E+02 eV

  End self-consistency iteration #     7       :  max(cpu_time)    wall_clock(cpu1)
  | Time for this iteration                    :        0.024 s           0.024 s
  | Charge density update                      :        0.006 s           0.005 s
  | Density mixing                             :        0.002 s           0.002 s
  | Hartree multipole update                   :        0.001 s           0.001 s
  | Hartree multipole summation                :        0.004 s           0.004 s
  | Integration                                :        0.009 s           0.008 s
  | Solution of K.-S. eqns.                    :        0.001 s           0.002 s
  | Total energy evaluation                    :        0.000 s           0.000 s
------------------------------------------------------------

------------------------------------------------------------
          Begin self-consistency iteration #    8

  Date     :  20220120, Time     :  153124.368
------------------------------------------------------------
  Evaluating new KS density.
  Integration grid: deviation in total charge (<rho> - N_e) =   5.110955E-08
  | <rho_up-rho_dn> = N_up-N_dn =     -0.2477; <|rho_up-rho_dn|> =      1.6041
  Pulay mixing of updated and previous charge densities.

  Evaluating partitioned Hartree potential by multipole expansion.
  | Analytical far-field extrapolation by fixed multipoles:
  | Hartree multipole sum: apparent total charge =  -0.182175E-04
  Summing up the Hartree potential.
  Time summed over all CPUs for potential: real work        0.030 s, elapsed        0.031 s
  | RMS charge density error from multipole expansion :   0.127458E-01

  Integrating Hamiltonian matrix: batch-based integration.
  Time summed over all CPUs for integration: real work        0.065 s, elapsed        0.068 s

  Updating Kohn-Sham eigenvalues, eigenvectors, occupation numbers, and Fermi level.
  Solving generalized eigenproblem
  Solving real symmetric generalised eigenvalue problem by standard ScaLAPACK.
  Using Cholesky factor for transformation
  Using 1-stage real ELPA solver
  Solving real symmetric generalised eigenvalue problem by standard ScaLAPACK.
  Using Cholesky factor for transformation
  Using 1-stage real ELPA solver
  Determining occupation numbers for Kohn-Sham eigenstates.
  | Chemical potential (Fermi level) in eV                 : -.33759467E+02
  | Error in electron count due to remaining E_F inaccuracy: 0.00000000E+00
  | Maximum occupation number of highest empty state:  0.00E+00

  Current spin moment of the entire structure :
  | N = N_up - N_down :    0.00
  | S                 :    0.00
  | J                 :    1.00

  Highest occupied state (VBM) at    -36.60154532 eV
  | Occupation number:      1.00000000
  | Spin channel:        2

  Lowest unoccupied state (CBM) at    -6.43478839 eV
  | Occupation number:      0.00000000
  | Spin channel:        1

  Overall HOMO-LUMO gap:     30.16675694 eV.

  Total energy components:
  | Sum of eigenvalues            :          -2.72568550 Ha         -74.16967616 eV
  | XC energy correction          :          -1.00756215 Ha         -27.41716109 eV
  | XC potential correction       :           1.29716429 Ha          35.29763628 eV
  | Free-atom electrostatic energy:          -0.16400703 Ha          -4.46285840 eV
  | Hartree energy correction     :          -0.44795633 Ha         -12.18951184 eV
  | van der Waals energy corr.    :           0.00000000 Ha           0.00000000 eV
  | Entropy correction            :           0.00000000 Ha           0.00000000 eV
  | ---------------------------
  | Total energy                  :          -3.04804672 Ha         -82.94157120 eV
  | Total energy, T -> 0          :          -3.04804672 Ha         -82.94157120 eV  <-- do not rely on this value for anything but (periodic) metals
  | Electronic free energy        :          -3.04804672 Ha         -82.94157120 eV

  Derived energy quantities:
  | Kinetic energy                :          -5.67283712 Ha        -154.36575199 eV
  | Electrostatic energy          :           3.63235255 Ha          98.84134188 eV
  | Energy correction for multipole
  | error in Hartree potential    :           0.00223118 Ha           0.06071351 eV
  | Sum of eigenvalues per atom                           :         -37.08483808 eV
  | Total energy (T->0) per atom                          :         -41.47078560 eV  <-- do not rely on this value for anything but (periodic) metals
  | Electronic free energy per atom                       :         -41.47078560 eV

  Self-consistency convergence accuracy:
  | Change of charge/spin density : 0.1765E+01 0.5584E+00
  | Change of sum of eigenvalues  : 0.2679E+00 eV
  | Change of total energy        : 0.1428E+00 eV

  End self-consistency iteration #     8       :  max(cpu_time)    wall_clock(cpu1)
  | Time for this iteration                    :        0.024 s           0.024 s
  | Charge density update                      :        0.006 s           0.006 s
  | Density mixing                             :        0.002 s           0.001 s
  | Hartree multipole update                   :        0.001 s           0.002 s
  | Hartree multipole summation                :        0.004 s           0.004 s
  | Integration                                :        0.009 s           0.009 s
  | Solution of K.-S. eqns.                    :        0.001 s           0.001 s
  | Total energy evaluation                    :        0.000 s           0.001 s
------------------------------------------------------------

------------------------------------------------------------
          Begin self-consistency iteration #    9

  Date     :  20220120, Time     :  153124.397
------------------------------------------------------------
  Evaluating new KS density.
  Integration grid: deviation in total charge (<rho> - N_e) =   4.013133E-08
  | <rho_up-rho_dn> = N_up-N_dn =     -0.2205; <|rho_up-rho_dn|> =      1.6197
  Pulay mixing of updated and previous charge densities.

  Evaluating partitioned Hartree potential by multipole expansion.
  | Analytical far-field extrapolation by fixed multipoles:
  | Hartree multipole sum: apparent total charge =   0.104405E-04
  Summing up the Hartree potential.
  Time summed over all CPUs for potential: real work        0.030 s, elapsed        0.032 s
  | RMS charge density error from multipole expansion :   0.896820E-02

  Integrating Hamiltonian matrix: batch-based integration.
  Time summed over all CPUs for integration: real work        0.056 s, elapsed        0.059 s

  Updating Kohn-Sham eigenvalues, eigenvectors, occupation numbers, and Fermi level.
  Solving generalized eigenproblem
  Solving real symmetric generalised eigenvalue problem by standard ScaLAPACK.
  Using Cholesky factor for transformation
  Using 1-stage real ELPA solver
  Solving real symmetric generalised eigenvalue problem by standard ScaLAPACK.
  Using Cholesky factor for transformation
  Using 1-stage real ELPA solver
  Determining occupation numbers for Kohn-Sham eigenstates.
  | Chemical potential (Fermi level) in eV                 : 0.23072522E+01
  | Error in electron count due to remaining E_F inaccuracy: 0.00000000E+00
  | Maximum occupation number of highest empty state:  0.00E+00

  Current spin moment of the entire structure :
  | N = N_up - N_down :    0.00
  | S                 :    0.00
  | J                 :    1.00

  Highest occupied state (VBM) at      1.47401630 eV
  | Occupation number:      1.00000000
  | Spin channel:        2
 * WARNING: The VBM is higher than the internal energy zero!

  Lowest unoccupied state (CBM) at     2.83690516 eV
  | Occupation number:      0.00000000
  | Spin channel:        2

  Overall HOMO-LUMO gap:      1.36288886 eV.

  Total energy components:
  | Sum of eigenvalues            :           0.10611541 Ha           2.88754719 eV
  | XC energy correction          :          -1.75848222 Ha         -47.85073594 eV
  | XC potential correction       :           2.27245559 Ha          61.83666269 eV
  | Free-atom electrostatic energy:          -0.16400703 Ha          -4.46285840 eV
  | Hartree energy correction     :          -2.48915149 Ha         -67.73325835 eV
  | van der Waals energy corr.    :           0.00000000 Ha           0.00000000 eV
  | Entropy correction            :           0.00000000 Ha           0.00000000 eV
  | ---------------------------
  | Total energy                  :          -2.03306975 Ha         -55.32264282 eV
  | Total energy, T -> 0          :          -2.03306975 Ha         -55.32264282 eV  <-- do not rely on this value for anything but (periodic) metals
  | Electronic free energy        :          -2.03306975 Ha         -55.32264282 eV

  Derived energy quantities:
  | Kinetic energy                :           2.51617022 Ha          68.46847526 eV
  | Electrostatic energy          :          -2.79075775 Ha         -75.94038213 eV
  | Energy correction for multipole
  | error in Hartree potential    :          -0.00084837 Ha          -0.02308544 eV
  | Sum of eigenvalues per atom                           :           1.44377359 eV
  | Total energy (T->0) per atom                          :         -27.66132141 eV  <-- do not rely on this value for anything but (periodic) metals
  | Electronic free energy per atom                       :         -27.66132141 eV

  Self-consistency convergence accuracy:
  | Change of charge/spin density : 0.1768E+01 0.5661E+00
  | Change of sum of eigenvalues  : 0.7706E+02 eV
  | Change of total energy        : 0.2762E+02 eV

  End self-consistency iteration #     9       :  max(cpu_time)    wall_clock(cpu1)
  | Time for this iteration                    :        0.027 s           0.023 s
  | Charge density update                      :        0.010 s           0.006 s
  | Density mixing                             :        0.002 s           0.001 s
  | Hartree multipole update                   :        0.001 s           0.002 s
  | Hartree multipole summation                :        0.004 s           0.004 s
  | Integration                                :        0.007 s           0.008 s
  | Solution of K.-S. eqns.                    :        0.001 s           0.001 s
  | Total energy evaluation                    :        0.000 s           0.001 s
------------------------------------------------------------

------------------------------------------------------------
          Begin self-consistency iteration #   10

  Date     :  20220120, Time     :  153124.421
------------------------------------------------------------
  Evaluating new KS density.
  Integration grid: deviation in total charge (<rho> - N_e) =  -1.643495E-09
  | <rho_up-rho_dn> = N_up-N_dn =      0.0339; <|rho_up-rho_dn|> =      1.1366
  Pulay mixing of updated and previous charge densities.

  Evaluating partitioned Hartree potential by multipole expansion.
  | Analytical far-field extrapolation by fixed multipoles:
  | Hartree multipole sum: apparent total charge =   0.104287E-04
  Summing up the Hartree potential.
  Time summed over all CPUs for potential: real work        0.030 s, elapsed        0.031 s
  | RMS charge density error from multipole expansion :   0.901209E-02

  Integrating Hamiltonian matrix: batch-based integration.
  Time summed over all CPUs for integration: real work        0.057 s, elapsed        0.059 s

  Updating Kohn-Sham eigenvalues, eigenvectors, occupation numbers, and Fermi level.
  Solving generalized eigenproblem
  Solving real symmetric generalised eigenvalue problem by standard ScaLAPACK.
  Using Cholesky factor for transformation
  Using 1-stage real ELPA solver
  Solving real symmetric generalised eigenvalue problem by standard ScaLAPACK.
  Using Cholesky factor for transformation
  Using 1-stage real ELPA solver
  Determining occupation numbers for Kohn-Sham eigenstates.
  | Chemical potential (Fermi level) in eV                 : 0.22995741E+01
  | Error in electron count due to remaining E_F inaccuracy: 0.00000000E+00
  | Maximum occupation number of highest empty state:  0.00E+00

  Current spin moment of the entire structure :
  | N = N_up - N_down :    0.00
  | S                 :    0.00
  | J                 :    1.00

  Highest occupied state (VBM) at      1.47168124 eV
  | Occupation number:      1.00000000
  | Spin channel:        2
 * WARNING: The VBM is higher than the internal energy zero!

  Lowest unoccupied state (CBM) at     2.83684722 eV
  | Occupation number:      0.00000000
  | Spin channel:        1

  Overall HOMO-LUMO gap:      1.36516598 eV.

  Total energy components:
  | Sum of eigenvalues            :           0.10576443 Ha           2.87799666 eV
  | XC energy correction          :          -1.76219237 Ha         -47.95169405 eV
  | XC potential correction       :           2.27719520 Ha          61.96563419 eV
  | Free-atom electrostatic energy:          -0.16400703 Ha          -4.46285840 eV
  | Hartree energy correction     :          -2.49350029 Ha         -67.85159520 eV
  | van der Waals energy corr.    :           0.00000000 Ha           0.00000000 eV
  | Entropy correction            :           0.00000000 Ha           0.00000000 eV
  | ---------------------------
  | Total energy                  :          -2.03674006 Ha         -55.42251680 eV
  | Total energy, T -> 0          :          -2.03674006 Ha         -55.42251680 eV  <-- do not rely on this value for anything but (periodic) metals
  | Electronic free energy        :          -2.03674006 Ha         -55.42251680 eV

  Derived energy quantities:
  | Kinetic energy                :           2.51998878 Ha          68.57238363 eV
  | Electrostatic energy          :          -2.79453647 Ha         -76.04320638 eV
  | Energy correction for multipole
  | error in Hartree potential    :          -0.00086173 Ha          -0.02344877 eV
  | Sum of eigenvalues per atom                           :           1.43899833 eV
  | Total energy (T->0) per atom                          :         -27.71125840 eV  <-- do not rely on this value for anything but (periodic) metals
  | Electronic free energy per atom                       :         -27.71125840 eV

  Self-consistency convergence accuracy:
  | Change of charge/spin density : 0.1174E+01 0.3812E+00
  | Change of sum of eigenvalues  : -.9551E-02 eV
  | Change of total energy        : -.9987E-01 eV

  End self-consistency iteration #    10       :  max(cpu_time)    wall_clock(cpu1)
  | Time for this iteration                    :        0.023 s           0.023 s
  | Charge density update                      :        0.006 s           0.006 s
  | Density mixing                             :        0.002 s           0.002 s
  | Hartree multipole update                   :        0.001 s           0.001 s
  | Hartree multipole summation                :        0.004 s           0.004 s
  | Integration                                :        0.008 s           0.008 s
  | Solution of K.-S. eqns.                    :        0.001 s           0.001 s
  | Total energy evaluation                    :        0.000 s           0.001 s
------------------------------------------------------------

------------------------------------------------------------
          Begin self-consistency iteration #   11

  Date     :  20220120, Time     :  153124.448
------------------------------------------------------------
  Evaluating new KS density.
  Integration grid: deviation in total charge (<rho> - N_e) =   2.696815E-09
  | <rho_up-rho_dn> = N_up-N_dn =     -0.0045; <|rho_up-rho_dn|> =      1.1448
  Pulay mixing of updated and previous charge densities.

  Evaluating partitioned Hartree potential by multipole expansion.
  | Analytical far-field extrapolation by fixed multipoles:
  | Hartree multipole sum: apparent total charge =   0.116498E-04
  Summing up the Hartree potential.
  Time summed over all CPUs for potential: real work        0.030 s, elapsed        0.031 s
  | RMS charge density error from multipole expansion :   0.778905E-02

  Integrating Hamiltonian matrix: batch-based integration.
  Time summed over all CPUs for integration: real work        0.056 s, elapsed        0.059 s

  Updating Kohn-Sham eigenvalues, eigenvectors, occupation numbers, and Fermi level.
  Solving generalized eigenproblem
  Solving real symmetric generalised eigenvalue problem by standard ScaLAPACK.
  Using Cholesky factor for transformation
  Using 1-stage real ELPA solver
  Solving real symmetric generalised eigenvalue problem by standard ScaLAPACK.
  Using Cholesky factor for transformation
  Using 1-stage real ELPA solver
  Determining occupation numbers for Kohn-Sham eigenstates.
  | Chemical potential (Fermi level) in eV                 : 0.19491398E+01
  | Error in electron count due to remaining E_F inaccuracy: 0.00000000E+00
  | Maximum occupation number of highest empty state:  0.00E+00

  Current spin moment of the entire structure :
  | N = N_up - N_down :    0.00
  | S                 :    0.00
  | J                 :    1.00

  Highest occupied state (VBM) at      1.15151509 eV
  | Occupation number:      1.00000000
  | Spin channel:        2
 * WARNING: The VBM is higher than the internal energy zero!

  Lowest unoccupied state (CBM) at     2.83021816 eV
  | Occupation number:      0.00000000
  | Spin channel:        2

  Overall HOMO-LUMO gap:      1.67870307 eV.

  Total energy components:
  | Sum of eigenvalues            :           0.08151126 Ha           2.21803420 eV
  | XC energy correction          :          -1.60829343 Ha         -43.76389096 eV
  | XC potential correction       :           2.07674816 Ha          56.51119270 eV
  | Free-atom electrostatic energy:          -0.16400703 Ha          -4.46285840 eV
  | Hartree energy correction     :          -2.14915304 Ha         -58.48142975 eV
  | van der Waals energy corr.    :           0.00000000 Ha           0.00000000 eV
  | Entropy correction            :           0.00000000 Ha           0.00000000 eV
  | ---------------------------
  | Total energy                  :          -1.76319409 Ha         -47.97895220 eV
  | Total energy, T -> 0          :          -1.76319409 Ha         -47.97895220 eV  <-- do not rely on this value for anything but (periodic) metals
  | Electronic free energy        :          -1.76319409 Ha         -47.97895220 eV

  Derived energy quantities:
  | Kinetic energy                :           2.55467757 Ha          69.51631376 eV
  | Electrostatic energy          :          -2.70957823 Ha         -73.73137500 eV
  | Energy correction for multipole
  | error in Hartree potential    :          -0.00063785 Ha          -0.01735674 eV
  | Sum of eigenvalues per atom                           :           1.10901710 eV
[...]
  | Change of sum of eigenvalues  : -.1183E-03 eV
  | Change of total energy        : -.1201E-08 eV

  End self-consistency iteration #    27       :  max(cpu_time)    wall_clock(cpu1)
  | Time for this iteration                    :        0.024 s           0.024 s
  | Charge density update                      :        0.006 s           0.005 s
  | Density mixing                             :        0.002 s           0.002 s
  | Hartree multipole update                   :        0.001 s           0.001 s
  | Hartree multipole summation                :        0.004 s           0.005 s
  | Integration                                :        0.009 s           0.008 s
  | Solution of K.-S. eqns.                    :        0.001 s           0.001 s
  | Total energy evaluation                    :        0.000 s           0.001 s
------------------------------------------------------------

------------------------------------------------------------
          Begin self-consistency iteration #   28

  Date     :  20220120, Time     :  153124.897
------------------------------------------------------------
  Evaluating new KS density.
  Integration grid: deviation in total charge (<rho> - N_e) =   9.503509E-13
  | <rho_up-rho_dn> = N_up-N_dn =      0.0000; <|rho_up-rho_dn|> =      0.0000
  Pulay mixing of updated and previous charge densities.

  Evaluating partitioned Hartree potential by multipole expansion.
  | Analytical far-field extrapolation by fixed multipoles:
  | Hartree multipole sum: apparent total charge =   0.118308E-05
  Summing up the Hartree potential.
  Time summed over all CPUs for potential: real work        0.030 s, elapsed        0.031 s
  | RMS charge density error from multipole expansion :   0.174270E-02

  Integrating Hamiltonian matrix: batch-based integration.
  Time summed over all CPUs for integration: real work        0.066 s, elapsed        0.069 s

  Updating Kohn-Sham eigenvalues, eigenvectors, occupation numbers, and Fermi level.
  Solving generalized eigenproblem
  Solving real symmetric generalised eigenvalue problem by standard ScaLAPACK.
  Using Cholesky factor for transformation
  Using 1-stage real ELPA solver
  Solving real symmetric generalised eigenvalue problem by standard ScaLAPACK.
  Using Cholesky factor for transformation
  Using 1-stage real ELPA solver
  Determining occupation numbers for Kohn-Sham eigenstates.
  | Chemical potential (Fermi level) in eV                 : -.96571471E+01
  | Error in electron count due to remaining E_F inaccuracy: 0.00000000E+00
  | Maximum occupation number of highest empty state:  0.00E+00

  Current spin moment of the entire structure :
  | N = N_up - N_down :    0.00
  | S                 :    0.00
  | J                 :    1.00

  Highest occupied state (VBM) at    -11.32263664 eV
  | Occupation number:      1.00000000
  | Spin channel:        2

  Lowest unoccupied state (CBM) at     1.09231405 eV
  | Occupation number:      0.00000000
  | Spin channel:        2

  Overall HOMO-LUMO gap:     12.41495068 eV.

  Total energy components:
  | Sum of eigenvalues            :          -0.83219853 Ha         -22.64527409 eV
  | XC energy correction          :          -0.75286663 Ha         -20.48654333 eV
  | XC potential correction       :           0.96630369 Ha          26.29446128 eV
  | Free-atom electrostatic energy:          -0.16400703 Ha          -4.46285840 eV
  | Hartree energy correction     :          -0.35258884 Ha          -9.59443048 eV
  | van der Waals energy corr.    :           0.00000000 Ha           0.00000000 eV
  | Entropy correction            :           0.00000000 Ha           0.00000000 eV
  | ---------------------------
  | Total energy                  :          -1.13535734 Ha         -30.89464502 eV
  | Total energy, T -> 0          :          -1.13535734 Ha         -30.89464502 eV  <-- do not rely on this value for anything but (periodic) metals
  | Electronic free energy        :          -1.13535734 Ha         -30.89464502 eV

  Derived energy quantities:
  | Kinetic energy                :           1.34346328 Ha          36.55749593 eV
  | Electrostatic energy          :          -1.72595399 Ha         -46.96559762 eV
  | Energy correction for multipole
  | error in Hartree potential    :          -0.00002506 Ha          -0.00068194 eV
  | Sum of eigenvalues per atom                           :         -11.32263704 eV
  | Total energy (T->0) per atom                          :         -15.44732251 eV  <-- do not rely on this value for anything but (periodic) metals
  | Electronic free energy per atom                       :         -15.44732251 eV

  Self-consistency convergence accuracy:
  | Change of charge/spin density : 0.3657E-05 0.4253E-05
  | Change of sum of eigenvalues  : 0.3103E-03 eV
  | Change of total energy        : -.1088E-06 eV

  End self-consistency iteration #    28       :  max(cpu_time)    wall_clock(cpu1)
  | Time for this iteration                    :        0.028 s           0.024 s
  | Charge density update                      :        0.009 s           0.005 s
  | Density mixing                             :        0.002 s           0.002 s
  | Hartree multipole update                   :        0.001 s           0.001 s
  | Hartree multipole summation                :        0.004 s           0.005 s
  | Integration                                :        0.009 s           0.009 s
  | Solution of K.-S. eqns.                    :        0.001 s           0.001 s
  | Total energy evaluation                    :        0.000 s           0.001 s
------------------------------------------------------------

------------------------------------------------------------
          Begin self-consistency iteration #   29

  Date     :  20220120, Time     :  153124.922
------------------------------------------------------------
  Evaluating new KS density.
  Integration grid: deviation in total charge (<rho> - N_e) =  -1.657563E-12
  | <rho_up-rho_dn> = N_up-N_dn =     -0.0000; <|rho_up-rho_dn|> =      0.0000
  Pulay mixing of updated and previous charge densities.

  Evaluating partitioned Hartree potential by multipole expansion.
  | Analytical far-field extrapolation by fixed multipoles:
  | Hartree multipole sum: apparent total charge =   0.118259E-05
  Summing up the Hartree potential.
  Time summed over all CPUs for potential: real work        0.030 s, elapsed        0.031 s
  | RMS charge density error from multipole expansion :   0.174269E-02

  Integrating Hamiltonian matrix: batch-based integration.
  Time summed over all CPUs for integration: real work        0.066 s, elapsed        0.069 s

  Updating Kohn-Sham eigenvalues, eigenvectors, occupation numbers, and Fermi level.
  Solving generalized eigenproblem
  Solving real symmetric generalised eigenvalue problem by standard ScaLAPACK.
  Using Cholesky factor for transformation
  Using 1-stage real ELPA solver
  Solving real symmetric generalised eigenvalue problem by standard ScaLAPACK.
  Using Cholesky factor for transformation
  Using 1-stage real ELPA solver
  Determining occupation numbers for Kohn-Sham eigenstates.
  | Chemical potential (Fermi level) in eV                 : -.96568258E+01
  | Error in electron count due to remaining E_F inaccuracy: 0.00000000E+00
  | Maximum occupation number of highest empty state:  0.00E+00

  Current spin moment of the entire structure :
  | N = N_up - N_down :    0.00
  | S                 :    0.00
  | J                 :    1.00

  Highest occupied state (VBM) at    -11.32263801 eV
  | Occupation number:      1.00000000
  | Spin channel:        2

  Lowest unoccupied state (CBM) at     1.09189732 eV
  | Occupation number:      0.00000000
  | Spin channel:        1

  Overall HOMO-LUMO gap:     12.41453533 eV.

  Total energy components:
  | Sum of eigenvalues            :          -0.83219864 Ha         -22.64527722 eV
  | XC energy correction          :          -0.75286664 Ha         -20.48654367 eV
  | XC potential correction       :           0.96630371 Ha          26.29446179 eV
  | Free-atom electrostatic energy:          -0.16400703 Ha          -4.46285840 eV
  | Hartree energy correction     :          -0.35258873 Ha          -9.59442751 eV
  | van der Waals energy corr.    :           0.00000000 Ha           0.00000000 eV
  | Entropy correction            :           0.00000000 Ha           0.00000000 eV
  | ---------------------------
  | Total energy                  :          -1.13535734 Ha         -30.89464502 eV
  | Total energy, T -> 0          :          -1.13535734 Ha         -30.89464502 eV  <-- do not rely on this value for anything but (periodic) metals
  | Electronic free energy        :          -1.13535734 Ha         -30.89464502 eV

  Derived energy quantities:
  | Kinetic energy                :           1.34346405 Ha          36.55751692 eV
  | Electrostatic energy          :          -1.72595475 Ha         -46.96561826 eV
  | Energy correction for multipole
  | error in Hartree potential    :          -0.00002506 Ha          -0.00068196 eV
  | Sum of eigenvalues per atom                           :         -11.32263861 eV
  | Total energy (T->0) per atom                          :         -15.44732251 eV  <-- do not rely on this value for anything but (periodic) metals
  | Electronic free energy per atom                       :         -15.44732251 eV

  Self-consistency convergence accuracy:
  | Change of charge/spin density : 0.5763E-06 0.1345E-06
  | Change of sum of eigenvalues  : -.3137E-05 eV
  | Change of total energy        : -.1174E-08 eV

  Writing Kohn-Sham eigenvalues.

  Spin-up eigenvalues:

  State    Occupation    Eigenvalue [Ha]    Eigenvalue [eV]
      1       1.00000          -0.416099          -11.32264
      2       0.00000           0.040126            1.09190
      3       0.00000           0.045825            1.24696
      4       0.00000           0.196475            5.34636
      5       0.00000           0.333899            9.08585
      6       0.00000           0.333899            9.08585
      7       0.00000           0.355424            9.67157
      8       0.00000           0.637395           17.34441
      9       0.00000           0.793404           21.58961
     10       0.00000           0.793404           21.58961
     11       0.00000           0.807597           21.97582

  Spin-down eigenvalues:

  State    Occupation    Eigenvalue [Ha]    Eigenvalue [eV]
      1       1.00000          -0.416099          -11.32264
      2       0.00000           0.040130            1.09198
      3       0.00000           0.045827            1.24701
      4       0.00000           0.196482            5.34655
      5       0.00000           0.333899            9.08585
      6       0.00000           0.333899            9.08585
      7       0.00000           0.355426            9.67163
      8       0.00000           0.637399           17.34450
      9       0.00000           0.793404           21.58961
     10       0.00000           0.793404           21.58961
     11       0.00000           0.807597           21.97583

  Current spin moment of the entire structure :
  | N = N_up - N_down :    0.00
  | S                 :    0.00
  | J                 :    1.00

  Highest occupied state (VBM) at    -11.32263801 eV
  | Occupation number:      1.00000000
  | Spin channel:        2

  Lowest unoccupied state (CBM) at     1.09189732 eV
  | Occupation number:      0.00000000
  | Spin channel:        1

  Overall HOMO-LUMO gap:     12.41453533 eV.

  Self-consistency cycle converged.

  End self-consistency iteration #    29       :  max(cpu_time)    wall_clock(cpu1)
  | Time for this iteration                    :        0.024 s           0.025 s
  | Charge density update                      :        0.006 s           0.005 s
  | Density mixing                             :        0.002 s           0.002 s
  | Hartree multipole update                   :        0.001 s           0.001 s
  | Hartree multipole summation                :        0.004 s           0.004 s
  | Integration                                :        0.009 s           0.009 s
  | Solution of K.-S. eqns.                    :        0.001 s           0.001 s
  | Total energy evaluation                    :        0.000 s           0.000 s
------------------------------------------------------------
  Obtaining max. number of non-zero basis functions in each batch .
  Evaluating KS electron density on previously omitted grid points.
  Evaluating non-empirical van der Waals correction (Tkatchenko/Scheffler 2009).
  Performing Hirshfeld analysis of fragment charges and moments.
  ----------------------------------------------------------------------
  | Atom     1: H
  |   Hirshfeld charge        :     -0.00000051
  |   Free atom volume        :     10.31539447
  |   Hirshfeld volume        :      4.45032447
  |   Hirshfeld spin moment   :      0.00000038
  |   Hirshfeld dipole vector :      0.00000000       0.00000000      -0.07041002
  |   Hirshfeld dipole moment :      0.07041002
  |   Hirshfeld second moments:      0.14669953      -0.00000000       0.00000000
  |                                 -0.00000000       0.14669953       0.00000000
  |                                  0.00000000       0.00000000       0.14330996
  ----------------------------------------------------------------------
  | Atom     2: H
  |   Hirshfeld charge        :     -0.00000051
  |   Free atom volume        :     10.31539447
  |   Hirshfeld volume        :      4.45032447
  |   Hirshfeld spin moment   :      0.00000038
  |   Hirshfeld dipole vector :     -0.00000000       0.00000000       0.07041002
  |   Hirshfeld dipole moment :      0.07041002
  |   Hirshfeld second moments:      0.14669953      -0.00000000      -0.00000000
  |                                 -0.00000000       0.14669953       0.00000000
  |                                 -0.00000000       0.00000000       0.14330996
  ----------------------------------------------------------------------


  Total energy components:
  | Sum of eigenvalues            :          -0.83219864 Ha         -22.64527722 eV
  | XC energy correction          :          -0.75286664 Ha         -20.48654367 eV
  | XC potential correction       :           0.96630371 Ha          26.29446179 eV
  | Free-atom electrostatic energy:          -0.16400703 Ha          -4.46285840 eV
  | Hartree energy correction     :          -0.35258873 Ha          -9.59442751 eV
  | van der Waals energy corr.    :          -0.00000021 Ha          -0.00000579 eV
  | Entropy correction            :           0.00000000 Ha           0.00000000 eV
  | ---------------------------
  | Total energy                  :          -1.13535755 Ha         -30.89465080 eV
  | Total energy, T -> 0          :          -1.13535755 Ha         -30.89465080 eV  <-- do not rely on this value for anything but (periodic) metals
  | Electronic free energy        :          -1.13535755 Ha         -30.89465080 eV

  Derived energy quantities:
  | Kinetic energy                :           1.34346405 Ha          36.55751692 eV
  | Electrostatic energy          :          -1.72595475 Ha         -46.96561826 eV
  | Energy correction for multipole
  | error in Hartree potential    :          -0.00002506 Ha          -0.00068196 eV
  | Sum of eigenvalues per atom                           :         -11.32263861 eV
  | Total energy (T->0) per atom                          :         -15.44732540 eV  <-- do not rely on this value for anything but (periodic) metals
  | Electronic free energy per atom                       :         -15.44732540 eV
  Timings for VdW correction (Tkatchenko-Scheffler 2009 or later):
  | CPU time:        0.003 s, Wall clock time:        0.002 s.

  Energy and forces in a compact form:
  | Total energy uncorrected      :         -0.308946508039960E+02 eV
  | Total energy corrected        :         -0.308946508039960E+02 eV  <-- do not rely on this value for anything but (periodic) metals
  | Electronic free energy        :         -0.308946508039960E+02 eV

  ------------------------------------ 
  Start decomposition of the XC Energy 
  ------------------------------------ 
  Hartree-Fock part   :          0.000000000 Ha              0.000000000 eV
  ------------------------------------ 
  X Energy            :         -0.709272856 Ha            -19.300296401 eV
  C Energy GGA        :         -0.043593786 Ha             -1.186247270 eV
  Total XC Energy     :         -0.752866642 Ha            -20.486543671 eV
  LDA X and C from self-consistent density 
  X Energy LDA        :         -0.620961747 Ha            -16.897228852 eV
  C Energy LDA        :         -0.098066624 Ha             -2.668528618 eV
  ------------------------------------ 
  End decomposition of the XC Energy 
  ------------------------------------ 

------------------------------------------------------------------------------
  Final output of selected total energy values:

  The following output summarizes some interesting total energy values
  at the end of a run (AFTER all relaxation, molecular dynamics, etc.).

  | Total energy of the DFT / Hartree-Fock s.c.f. calculation      :            -30.894650804 eV
  | Final zero-broadening corrected energy (caution - metals only) :            -30.894650804 eV
  | For reference only, the value of 1 Hartree used in FHI-aims is :             27.211384500 eV

  Before relying on these values, please be sure to understand exactly which
  total energy value is referred to by a given number. Different objects may
  all carry the same name 'total energy'. Definitions:

  Total energy of the DFT / Hartree-Fock s.c.f. calculation:
  | Note that this energy does not include ANY quantities calculated after the
  | s.c.f. cycle, in particular not ANY RPA, MP2, etc. many-body perturbation terms.

  Final zero-broadening corrected energy:
  | For metallic systems only, a broadening of the occupation numbers at the Fermi
  | level can be extrapolated back to zero broadening by an electron-gas inspired
  | formula. For all systems that are not real metals, this value can be
  | meaningless and should be avoided.

------------------------------------------------------------------------------

------------------------------------------------------------
          Leaving FHI-aims.
          Date     :  20220120, Time     :  153124.954

          Computational steps:
          | Number of self-consistency cycles          :           29

          Detailed time accounting                     :  max(cpu_time)    wall_clock(cpu1)
          | Total time                                 :        0.862 s           0.945 s
          | Preparation time                           :        0.069 s           0.071 s
          | Grid partitioning                          :        0.006 s           0.006 s
          | Preloading free-atom quantities on grid    :        0.003 s           0.003 s
          | Free-atom superposition energy             :        0.002 s           0.002 s
          | Total time for integrations                :        0.261 s           0.260 s
          | Total time for solution of K.-S. equations :        0.042 s           0.043 s
          | Total time for density update              :        0.184 s           0.155 s
          | Total time for mixing                      :        0.045 s           0.045 s
          | Total time for Hartree multipole update    :        0.036 s           0.040 s
          | Total time for Hartree multipole sum       :        0.122 s           0.124 s
          | Total time for total energy evaluation     :        0.004 s           0.013 s
          | Total time for scaled ZORA corrections     :        0.000 s           0.000 s
          | Total time for vdW correction              :        0.003 s           0.002 s

          Have a nice day.
------------------------------------------------------------
