  MPI-parallelism will be employed.
------------------------------------------------------------
          Invoking FHI-aims ...
          Version 052014
          Git rev. (modified): 096c982 Merge branch master of fhiaims:/pub/localo[...]
          Compiled on 2016/12/16 at 15:22:01 on host login02.hpc.iitd.ac.in.

          When using FHI-aims, please cite the following reference:

          Volker Blum, Ralf Gehrke, Felix Hanke, Paula Havu,
          Ville Havu, Xinguo Ren, Karsten Reuter, and Matthias Scheffler,
          'Ab Initio Molecular Simulations with Numeric Atom-Centered Orbitals: FHI-aims',
          Computer Physics Communications 180, 2175-2196 (2009)

          For any questions about FHI-aims, please visit the aimsclub website
          with its forums and wiki. Contributions to both the forums and the
          wiki are warmly encouraged - they are for you, and everyone is welcome there.

------------------------------------------------------------

  Date     :  20220120, Time     :  152332.765
  Time zero on CPU 1             :   0.238360000000000E-01  s.
  Internal wall clock time zero  :           411924212.765  s.

  Using        8 parallel tasks.
  Task        0 on host csky038 reporting.
  Task        1 on host csky038 reporting.
  Task        2 on host csky038 reporting.
  Task        3 on host csky038 reporting.
  Task        4 on host csky038 reporting.
  Task        5 on host csky038 reporting.
  Task        6 on host csky038 reporting.
  Task        7 on host csky038 reporting.

  Performing system and environment tests:
  | Environment variable OMP_NUM_THREADS correctly set to 1.
  | Stacksize not measured: no C compiler
  | Checking for scalapack...
  | Testing pdtran()...
  | All pdtran() tests passed.

  Obtaining array dimensions for all initial allocations:
  
  -----------------------------------------------------------------------
  Parsing control.in (first pass over file, find array dimensions only).
  The contents of control.in will be repeated verbatim below
  unless switched off by setting 'verbatim_writeout .false.' .
  in the first line of control.in .
  -----------------------------------------------------------------------
  
    xc               pbe
    spin             collinear
    default_initial_moment hund
    relativistic     atomic_zora scalar 1e-9
    occupation_type  gaussian 0.001
    charge        0
    vdw_correction_hirshfeld
    KS_method        scalapack_fast
    mixer            pulay
    charge_mix_param  0.4
    spin_mix_param    0.6
    sc_accuracy_rho  1E-4
    sc_accuracy_eev  1E-5
    sc_accuracy_etot 1E-5
    sc_iter_limit    100
    empty_states     10
  ################################################################################
  #
  #  FHI-aims code project
  # Volker Blum, Fritz Haber Institute Berlin, 2009
  #
  #  Suggested "tight" defaults for H atom (to be pasted into control.in file)
  #
  ################################################################################
    species        H
  #     global species definitions
      nucleus             1
      mass                1.00794
  #
      l_hartree           6
  #
      cut_pot             4.0  2.0  1.0
      basis_dep_cutoff    1e-4
  #
      radial_base         24 7.0
      radial_multiplier   2
      angular_grids       specified
        division   0.1930   50
        division   0.3175  110
        division   0.4293  194
        division   0.5066  302
        division   0.5626  434
  #      division   0.5922  590
  #      division   0.6227  974
  #      division   0.6868 1202
  #      outer_grid  770
        outer_grid  434
  ################################################################################
  #
  #  Definition of "minimal" basis
  #
  ################################################################################
  #     valence basis states
      valence      1  s   1.
  #     ion occupancy
      ion_occ      1  s   0.5
  ################################################################################
  #
  #  Suggested additional basis functions. For production calculations,
  #  uncomment them one after another (the most important basis functions are
  #  listed first).
  #
  #  Basis constructed for dimers: 0.5 A, 0.7 A, 1.0 A, 1.5 A, 2.5 A
  #
  ################################################################################
  #  "First tier" - improvements: -1014.90 meV to -62.69 meV
       hydro 2 s 2.1
       hydro 2 p 3.5
  #  "Second tier" - improvements: -12.89 meV to -1.83 meV
       hydro 1 s 0.85
       hydro 2 p 3.7
       hydro 2 s 1.2
       hydro 3 d 7
  #  "Third tier" - improvements: -0.25 meV to -0.12 meV
  #     hydro 4 f 11.2
  #     hydro 3 p 4.8
  #     hydro 4 d 9
  #     hydro 3 s 3.2
  ################################################################################
  #
  # For methods that use the localized form of the "resolution of identity" for
  # the two-electron Coulomb operator (RI_method LVL), particularly Hartree-Fock and
  # hybrid density functional calculations, the highest accuracy can be obtained by
  # uncommenting the line beginning with "for_aux"  below, thus adding an extra g radial
  # function to the construction of the product basis set for the expansion.
  # See Ref. New J. Phys. 17, 093020 (2015) for more information, particularly Figs. 1 and 6.
  #
  ################################################################################
  #
  # for_aux hydro 5 g 6.0
  
  -----------------------------------------------------------------------
  Completed first pass over input file control.in .
  -----------------------------------------------------------------------
  
  
  -----------------------------------------------------------------------
  Parsing geometry.in (first pass over file, find array dimensions only).
  The contents of geometry.in will be repeated verbatim below
  unless switched off by setting 'verbatim_writeout .false.' .
  in the first line of geometry.in .
  -----------------------------------------------------------------------
  
  atom 0 0 0 H
  atom 0 0 0.64 H
  
  -----------------------------------------------------------------------
  Completed first pass over input file geometry.in .
  -----------------------------------------------------------------------
  

  Basic array size parameters:
  | Number of species                 :        1
  | Number of atoms                   :        2
  | Max. basis fn. angular momentum   :        2
  | Max. atomic/ionic basis occupied n:        1
  | Max. number of basis fn. types    :        2
  | Max. radial fns per species/type  :        6
  | Max. logarithmic grid size        :     1131
  | Max. radial integration grid size :       49
  | Max. angular integration grid size:      434
  | Max. angular grid division number :        8
  | Radial grid for Hartree potential :     1131
  | Number of spin channels           :        2

------------------------------------------------------------
          Reading file control.in.
------------------------------------------------------------
  XC: Using PBE gradient-corrected functionals.
  Spin treatment: Spin density functional theory - collinear spins.
  Initial spin moment per atom set according to Hund's rules.
  Scalar relativistic treatment of kinetic energy: on-site free-atom approximation to ZORA.
  Occupation type: Gaussian broadening, width =   0.100000E-02 eV.
  Charge =   0.000000E+00: Neutral system requested explicitly.
  Using non-empirical van der Waals correction (Hirshfeld partitioning):
  Kohn-Sham eigenvalues and eigenfunctions calculated by the ELPA eigensolver library.
  Using pulay charge density mixing.
  Charge density mixing - mixing parameter:     0.4000
  Spin density mixing - mixing parameter:     0.6000
  Convergence accuracy of self-consistent charge density: 0.1000E-03
  Convergence accuracy of sum of eigenvalues: 0.1000E-04
  Convergence accuracy of total energy: 0.1000E-04
  Maximum number of s.-c. iterations  :   100
  Number of empty states per atom:       10
 
  Reading configuration options for species H                   .
  | Found nuclear charge :   1.0000
  | Found atomic mass :    1.00794000000000      amu
  | Found l_max for Hartree potential  :   6
  | Found cutoff potl. onset [A], width [A], scale factor :    4.00000    2.00000    1.00000
  | Threshold for basis-dependent cutoff potential is   0.100000E-03
  | Found data for basic radial integration grid :    24 points, outermost radius =    7.000 A
  | Found multiplier for basic radial grid :   2
  | Found angular grid specification: user-specified.
  | Specified grid contains     6 separate shells.
  | Check grid settings after all constraints further below.
  | Found free-atom valence shell :  1 s   1.000
  | No ionic wave fns used. Skipping ion_occ.
  | Found hydrogenic basis function :  2 s   2.100
  | Found hydrogenic basis function :  2 p   3.500
  | Found hydrogenic basis function :  1 s   0.850
  | Found hydrogenic basis function :  2 p   3.700
  | Found hydrogenic basis function :  2 s   1.200
  | Found hydrogenic basis function :  3 d   7.000
  Species H                   : Missing cutoff potential type.
  Defaulting to exp(1/x)/(1-x)^2 type cutoff potential.
  Species H : No 'logarithmic' tag. Using default grid for free atom:
  | Default logarithmic grid data [bohr] : 0.1000E-03 0.1000E+03 0.1012E+01
  Species H : On-site basis accuracy parameter (for Gram-Schmidt orthonormalisation) not specified.
  Using default value basis_acc =  0.1000000E-03.
  Species H                   : Using default innermost maximum threshold i_radial=  2 for radial functions.
  Species H                   : Default cutoff onset for free atom density etc. : 0.40000000E+01 AA.
  Species H                   : Basic radial grid will be enhanced according to radial_multiplier =   2, to contain    49 grid points.
 
  Finished reading input file 'control.in'. Consistency checks are next.
 
  Target number of points in a grid batch is not set. Defaulting to  100
  Method for grid partitioning is not set. Defaulting to parallel hash+maxmin partitioning.
  Batch size limit is not set. Defaulting to    200
  By default, will store active basis functions for each batch.
  If in need of memory, prune_basis_once .false. can be used to disable this option.
  communication_type for Hartree potential was not specified.
  Defaulting to calc_hartree .
  Pulay mixer: Number of relevant iterations not set.
  Defaulting to    8 iterations.
  Pulay mixer: Number of initial linear mixing iterations not set.
  Defaulting to    0 iterations.
  Work space size for distributed Hartree potential not set.
  Defaulting to   0.200000E+03 MB.
  Algorithm-dependent basis array size parameters:
  | n_max_pulay                         :        8
  Calculation of forces was not defined in control.in. No forces will be calculated.
  Geometry relaxation not requested: no relaxation will be performed.
  No accuracy limit for integral partition fn. given. Defaulting to 0.1000E-14.
  No threshold value for u(r) in integrations given. Defaulting to 0.1000E-05.
  No accuracy for occupation numbers given. Defaulting to 0.1000E-07.
  No threshold value for occupation numbers given. Defaulting to 0.0000E+00.
  No accuracy for fermi level given. Defaulting to 0.1000E-19.
  Maximum # of iterations to find E_F not set. Defaulting to  200.
  Will not use alltoall communication since running on < 1024 CPUs.
  Threshold for basis singularities not set.
  Default threshold for basis singularities: 0.1000E-04
  partition_type (choice of integration weights) for integrals was not specified.
  | Using a version of the partition function of Stratmann and coworkers ('stratmann_smoother').
  | At each grid point, the set of atoms used to build the partition table is smoothly restricted to
  | only those atoms whose free-atom density would be non-zero at that grid point.
  Partitioning for Hartree potential was not defined. Using partition_type for integrals.
  | Adjusted default value of keyword multip_moments_threshold to:       0.10000000E-11
  | This value may affect high angular momentum components of the Hartree potential in periodic systems.
  No q(lm)/r^(l+1) cutoff set for long-range Hartree potential.
  | Using default value of  0.100000E-09 .
  | Verify using the multipole_threshold keyword.
  Defaulting to new monopole extrapolation.
  Density update method: automatic selection selected.
------------------------------------------------------------


------------------------------------------------------------
          Reading geometry description geometry.in.
------------------------------------------------------------
  Input structure read successfully.
  The structure contains        2 atoms,  and a total of          2.000 electrons.

  Input geometry:
  | No unit cell requested.
  | Atomic structure:
  |       Atom                x [A]            y [A]            z [A]
  |    1: Species H              0.000000         0.000000         0.000000
  |    2: Species H              0.000000         0.000000         0.640000
  |

  | The smallest distance between any two atoms is         0.64000000 AA.
  |
  | The first atom of this pair is atom number                      1 .
  | The second atom of this pair is atom number                     2 .

  Initial moments and charges:
  |  Atom   Moment         Charge        Species
  |     1  (Hund's rule)   0.000000E+00   H
  |     2  (Hund's rule)   0.000000E+00   H

  Structure-dependent array size parameters: 
  | Number of distinct atom types in initial rho :        1
  | Maximum number of distinct radial functions  :        7
  | Maximum number of basis functions            :       30
  | Number of Kohn-Sham states (occupied + empty):       11
------------------------------------------------------------

------------------------------------------------------------
          Preparing all fixed parts of the calculation.
------------------------------------------------------------
  Determining machine precision:
    2.225073858507201E-308
  Setting up grids for atomic and cluster calculations.

  Creating wave function, potential, and density for free atoms.

  Species: H

  List of occupied orbitals and eigenvalues:
    n    l              occ      energy [Ha]    energy [eV]
    1    0           1.0000        -0.238386        -6.4868

  Spin-polarized or charged system:
  Charge density initialized according to selected moments and charges.

  Creating spin-polarized density from free atoms.

  Species: H
  Charge:   0.000000
  applying Hund's rules ...

  List of occupied orbitals and eigenvalues:
    n    l      energy [Ha]    energy [eV]    occupation
  Spin-up
    1    0        -0.278991        -7.5917     1.00000000
  Spin-down
    1    0         0.090850         2.4721     0.00000000

  Creating fixed part of basis set: Ionic, confined, hydrogenic.
 
  H                    hydrogenic:
 
  List of hydrogenic basis orbitals: 
    n    l      effective z      eigenvalue [eV]  inner max. [A]     outer max. [A]     outer radius [A]   
    2    0         2.100000       -14.9965           0.193243           1.317208           5.373006
    2    1         3.500000       -41.6672           0.602369           0.602369           4.056063
    1    0         0.850000        -9.8292           0.624871           0.624871           5.373006
    2    1         3.700000       -46.5653           0.573622           0.573622           3.910002
    2    0         1.200000        -4.5995           0.334980           2.228188           5.505995
    3    2         7.000000       -74.0753           0.680699           0.680699           3.769201
 

  Adding cutoff potential to free-atom effective potential.
  Creating atomic-like basis functions for current effective potential.

  Species H                   :

  List of atomic basis orbitals and eigenvalues:
    n    l      energy [Ha]    energy [eV]    outer radius [A]
    1    0        -0.238386        -6.4868       5.373006

  Assembling full basis from fixed parts.
  | Species H :   atomic orbital   1 s accepted.
  | Species H :    hydro orbital   2 s accepted.
  | Species H :    hydro orbital   1 s accepted.
  | Species H :    hydro orbital   2 s accepted.
  | Species H :    hydro orbital   2 p accepted.
  | Species H :    hydro orbital   2 p accepted.
  | Species H :    hydro orbital   3 d accepted.
 
  Basis size parameters after reduction:
  | Total number of radial functions:        7
  | Total number of basis functions :       30
 
  Testing on-site integration grid accuracy.
  |  Species  Function  <phi|h_atom|phi> (log., in eV)  <phi|h_atom|phi> (rad., in eV)
           1        1                 -6.4870767962                 -6.4871688290
           1        2                 13.5032046589                 13.5028982997
           1        3                 32.8195184817                 32.8119941656
           1        4                 33.8513856511                 33.7670005767 ***
           1        5                 28.8544614965                 28.8544615203
           1        6                 59.6326952547                 59.6327656460
           1        7                 60.2719308513                 60.2719305949
 * Note: Onsite integrals marked "***" above are less accurate than
 * onsite_accuracy_threshold =    0.03000 eV. Usually, this is harmless.
 * When in doubt, tighten the "radial" and/or "radial_multiplier" flags to check.

  Preparing densities etc. for the partition functions (integrals / Hartree potential).

  Preparations completed.
  max(cpu_time)          :      0.069 s.
  Wall clock time (cpu1) :      0.070 s.
------------------------------------------------------------

------------------------------------------------------------
          Begin self-consistency loop: Initialization.

          Date     :  20220120, Time     :  152332.918
------------------------------------------------------------

  Initializing index lists of integration centers etc. from given atomic structure:
  | Number of centers in hartree potential         :         2
  | Number of centers in hartree multipole         :         2
  | Number of centers in electron density summation:         2
  | Number of centers in basis integrals           :         2
  | Number of centers in integrals                 :         2
  Using modified Scalapack Eigenvalue solver (ELPA)
  * Using 8 tasks for Scalapack Eigenvalue solver.
  Detailed listing of tasks and assigned k-points:
  (for non-periodic systems, the "k-point" denotes an internal label only)
   Task     0 k-point     1 on csky038
   Task     1 k-point     1 on csky038
   Task     2 k-point     1 on csky038
   Task     3 k-point     1 on csky038
   Task     4 k-point     1 on csky038
   Task     5 k-point     1 on csky038
   Task     6 k-point     1 on csky038
   Task     7 k-point     1 on csky038
  Tasks:     8 split into      4 X      2 BLACS grid
  Calculating blocksize based on n_basis =           30 max_nprow =            4 max_npcol =            2
  Scalapack blocksize set to:            4
  Required Scalapack workspace - INTEGER:            1 REAL:             1
  Partitioning the integration grid into batches with parallel hashing+maxmin method.
  | Number of batches:      443
  | Maximal batch size:     197
  | Minimal batch size:      49
  | Average batch size:      65.237
  | Standard deviation of batch sizes:      18.796

  Integration load balanced across     8 MPI tasks.
  Work distribution over tasks is as follows:
  Task     0 has       3586 integration points.
  Task     1 has       3594 integration points.
  Task     2 has       3666 integration points.
  Task     3 has       3627 integration points.
  Task     4 has       3581 integration points.
  Task     5 has       3680 integration points.
  Task     6 has       3580 integration points.
  Task     7 has       3586 integration points.
  Initializing partition tables, free-atom densities, potentials, etc. across the integration grid (initialize_grid_storage).
  | initialize_grid_storage: Actual outermost partition radius vs. multipole_radius_free
  | (-- VB: in principle, multipole_radius_free should be larger, hence this output)
  | Species        1: outer_partition_radius =              6.000000000000000 AA, multipole_radius_free =              6.071692442739658 AA.
  | Original list of interatomic distances with           2 x          2 entries is created.
  | Net number of integration points:    28900
  | of which are non-zero points    :    26336
  Obtaining max. number of non-zero basis functions in each batch (get_n_compute_maxes).
  | Maximal number of non-zero basis functions:       30 in task     0
  | Maximal number of non-zero basis functions:       30 in task     1
  | Maximal number of non-zero basis functions:       30 in task     2
  | Maximal number of non-zero basis functions:       30 in task     3
  | Maximal number of non-zero basis functions:       30 in task     4
  | Maximal number of non-zero basis functions:       30 in task     5
  | Maximal number of non-zero basis functions:       30 in task     6
  | Maximal number of non-zero basis functions:       30 in task     7
  Selecting the method for density update.
  Loop over occupied states selected for charge density update.
  Integrating Hamiltonian matrix: batch-based integration.
  Time summed over all CPUs for integration: real work        0.075 s, elapsed        0.083 s
  Integrating overlap matrix.
  Time summed over all CPUs for integration: real work        0.020 s, elapsed        0.025 s
  Deallocating overlap matrix.

  Updating Kohn-Sham eigenvalues, eigenvectors, occupation numbers, and Fermi level.
  Solving generalized eigenproblem
  Solving real symmetric generalised eigenvalue problem by standard ScaLAPACK.
  Transforming overlap matrix with ScaLAPACK and checking for singularities.
  : Overlap matrix is nonsingular, using Cholesky decomposition
  | Lowest eigenvalue:  0.136893E-03
  Factoring overlap matrix with Cholesky decomposition
  Using Cholesky factor for transformation
  Using 1-stage real ELPA solver
  Solving real symmetric generalised eigenvalue problem by standard ScaLAPACK.
  Using Cholesky factor for transformation
  Using 1-stage real ELPA solver
  Determining occupation numbers for Kohn-Sham eigenstates.
  | Chemical potential (Fermi level) in eV                 : 0.68797946E-02
  | Error in electron count due to remaining E_F inaccuracy: 0.00000000E+00
  | Maximum occupation number of highest empty state:  0.00E+00

  Writing Kohn-Sham eigenvalues.

  Spin-up eigenvalues:

  State    Occupation    Eigenvalue [Ha]    Eigenvalue [eV]
      1       1.00000          -0.641094          -17.44506
      2       1.00000          -0.035319           -0.96107
      3       0.00000           0.004876            0.13269
      4       0.00000           0.117738            3.20382
      5       0.00000           0.207145            5.63669
      6       0.00000           0.207145            5.63669
      7       0.00000           0.286809            7.80446
      8       0.00000           0.489003           13.30645
      9       0.00000           0.685419           18.65120
     10       0.00000           0.688724           18.74113
     11       0.00000           0.688724           18.74113

  Spin-down eigenvalues:

  State    Occupation    Eigenvalue [Ha]    Eigenvalue [eV]
      1       0.00000           0.099208            2.69958
      2       0.00000           0.115495            3.14279
      3       0.00000           0.504425           13.72609
      4       0.00000           0.532654           14.49424
      5       0.00000           1.164514           31.68805
      6       0.00000           1.164514           31.68805
      7       0.00000           1.191890           32.43299
      8       0.00000           1.517437           41.29156
      9       0.00000           1.517437           41.29156
     10       0.00000           1.576014           42.88553
     11       0.00000           1.693364           46.07878

  Current spin moment of the entire structure :
  | N = N_up - N_down :    2.00
  | S                 :    1.00
  | J                 :    3.00

  Highest occupied state (VBM) at     -0.96107167 eV
  | Occupation number:      1.00000000
  | Spin channel:        1

  Lowest unoccupied state (CBM) at     0.13268890 eV
  | Occupation number:      0.00000000
  | Spin channel:        1

  Overall HOMO-LUMO gap:      1.09376057 eV.
  Calculating total energy contributions from superposition of free atom densities.

  Total energy components:
  | Sum of eigenvalues            :          -0.67641278 Ha         -18.40612812 eV
  | XC energy correction          :          -0.69685935 Ha         -18.96250784 eV
  | XC potential correction       :           0.89944218 Ha          24.47506696 eV
  | Free-atom electrostatic energy:          -0.25123762 Ha          -6.83652338 eV
  | Hartree energy correction     :           0.00000000 Ha           0.00000000 eV
  | van der Waals energy corr.    :           0.00000000 Ha           0.00000000 eV
  | Entropy correction            :           0.00000000 Ha           0.00000000 eV
  | ---------------------------
  | Total energy                  :          -0.72506757 Ha         -19.73009238 eV
  | Total energy, T -> 0          :          -0.72506757 Ha         -19.73009238 eV  <-- do not rely on this value for anything but (periodic) metals
  | Electronic free energy        :          -0.72506757 Ha         -19.73009238 eV

  Derived energy quantities:
  | Kinetic energy                :           1.23517028 Ha          33.61069347 eV
  | Electrostatic energy          :          -1.26337850 Ha         -34.37827801 eV
  | Energy correction for multipole
  | error in Hartree potential    :           0.00000000 Ha           0.00000000 eV
  | Sum of eigenvalues per atom                           :          -9.20306406 eV
  | Total energy (T->0) per atom                          :          -9.86504619 eV  <-- do not rely on this value for anything but (periodic) metals
  | Electronic free energy per atom                       :          -9.86504619 eV
  Initialize hartree_potential_storage
  Max. number of atoms included in rho_multipole:            2

  End scf initialization - timings             :  max(cpu_time)    wall_clock(cpu1)
  | Time for scf. initialization               :        0.040 s           0.043 s
  | Boundary condition initialization          :        0.000 s           0.001 s
  | Integration                                :        0.014 s           0.013 s
  | Solution of K.-S. eqns.                    :        0.009 s           0.010 s
  | Grid partitioning                          :        0.007 s           0.010 s
  | Preloading free-atom quantities on grid    :        0.003 s           0.002 s
  | Free-atom superposition energy             :        0.002 s           0.003 s
  | Total energy evaluation                    :        0.000 s           0.000 s
------------------------------------------------------------

------------------------------------------------------------
          Begin self-consistency iteration #    1

  Date     :  20220120, Time     :  152332.962
------------------------------------------------------------
  Evaluating new KS density.
  Integration grid: deviation in total charge (<rho> - N_e) =   3.175983E-07
  | <rho_up-rho_dn> = N_up-N_dn =      2.0000; <|rho_up-rho_dn|> =      2.1369
  Pulay mixing of updated and previous charge densities.

  Evaluating partitioned Hartree potential by multipole expansion.
  | Analytical far-field extrapolation by fixed multipoles:
  | Hartree multipole sum: apparent total charge =  -0.131786E-04
  Summing up the Hartree potential.
  Time summed over all CPUs for potential: real work        0.031 s, elapsed        0.032 s
  | RMS charge density error from multipole expansion :   0.817676E-03

  Integrating Hamiltonian matrix: batch-based integration.
  Time summed over all CPUs for integration: real work        0.061 s, elapsed        0.065 s

  Updating Kohn-Sham eigenvalues, eigenvectors, occupation numbers, and Fermi level.
  Solving generalized eigenproblem
  Solving real symmetric generalised eigenvalue problem by standard ScaLAPACK.
  Using Cholesky factor for transformation
  Using 1-stage real ELPA solver
  Solving real symmetric generalised eigenvalue problem by standard ScaLAPACK.
  Using Cholesky factor for transformation
  Using 1-stage real ELPA solver
  Determining occupation numbers for Kohn-Sham eigenstates.
  | Chemical potential (Fermi level) in eV                 : -.63577827E+01
  | Error in electron count due to remaining E_F inaccuracy: 0.00000000E+00
  | Maximum occupation number of highest empty state:  0.00E+00

  Writing Kohn-Sham eigenvalues.

  Spin-up eigenvalues:

  State    Occupation    Eigenvalue [Ha]    Eigenvalue [eV]
      1       1.00000          -0.526397          -14.32399
      2       0.00000           0.062264            1.69429
      3       0.00000           0.065326            1.77762
      4       0.00000           0.174934            4.76020
      5       0.00000           0.233557            6.35540
      6       0.00000           0.233557            6.35540
      7       0.00000           0.351265            9.55840
      8       0.00000           0.566185           15.40668
      9       0.00000           0.759603           20.66986
     10       0.00000           0.759603           20.66986
     11       0.00000           0.820857           22.33665

  Spin-down eigenvalues:

  State    Occupation    Eigenvalue [Ha]    Eigenvalue [eV]
      1       1.00000          -0.309181           -8.41325
      2       0.00000           0.083840            2.28139
      3       0.00000           0.090175            2.45378
      4       0.00000           0.247327            6.73011
      5       0.00000           0.343584            9.34939
      6       0.00000           0.343584            9.34939
      7       0.00000           0.411699           11.20290
      8       0.00000           0.689968           18.77499
      9       0.00000           0.847916           23.07297
     10       0.00000           0.847916           23.07297
     11       0.00000           0.885705           24.10125

  Current spin moment of the entire structure :
  | N = N_up - N_down :    0.00
  | S                 :    0.00
  | J                 :    1.00

  Highest occupied state (VBM) at     -8.41324808 eV
  | Occupation number:      1.00000000
  | Spin channel:        2

  Lowest unoccupied state (CBM) at     1.69428871 eV
  | Occupation number:      0.00000000
  | Spin channel:        1

  Overall HOMO-LUMO gap:     10.10753679 eV.

  Total energy components:
  | Sum of eigenvalues            :          -0.83557821 Ha         -22.73723988 eV
  | XC energy correction          :          -0.48379973 Ha         -13.16486060 eV
  | XC potential correction       :           0.62278440 Ha          16.94682571 eV
  | Free-atom electrostatic energy:          -0.25123762 Ha          -6.83652338 eV
  | Hartree energy correction     :           0.02947939 Ha           0.80217508 eV
  | van der Waals energy corr.    :           0.00000000 Ha           0.00000000 eV
  | Entropy correction            :           0.00000000 Ha           0.00000000 eV
  | ---------------------------
  | Total energy                  :          -0.91835177 Ha         -24.98962306 eV
  | Total energy, T -> 0          :          -0.91835177 Ha         -24.98962306 eV  <-- do not rely on this value for anything but (periodic) metals
  | Electronic free energy        :          -0.91835177 Ha         -24.98962306 eV

  Derived energy quantities:
  | Kinetic energy                :           0.87943449 Ha          23.93063017 eV
  | Electrostatic energy          :          -1.31398653 Ha         -35.75539264 eV
  | Energy correction for multipole
  | error in Hartree potential    :          -0.00015238 Ha          -0.00414644 eV
  | Sum of eigenvalues per atom                           :         -11.36861994 eV
  | Total energy (T->0) per atom                          :         -12.49481153 eV  <-- do not rely on this value for anything but (periodic) metals
  | Electronic free energy per atom                       :         -12.49481153 eV

  Self-consistency convergence accuracy:
  | Change of charge/spin density : 0.6401E-01 0.6401E-01
  | Change of sum of eigenvalues  : -.4331E+01 eV
  | Change of total energy        : -.5260E+01 eV

  End self-consistency iteration #     1       :  max(cpu_time)    wall_clock(cpu1)
  | Time for this iteration                    :        0.024 s           0.023 s
  | Charge density update                      :        0.006 s           0.006 s
  | Density mixing                             :        0.001 s           0.000 s
  | Hartree multipole update                   :        0.001 s           0.002 s
  | Hartree multipole summation                :        0.005 s           0.004 s
  | Integration                                :        0.008 s           0.008 s
  | Solution of K.-S. eqns.                    :        0.001 s           0.002 s
  | Total energy evaluation                    :        0.000 s           0.000 s
------------------------------------------------------------

------------------------------------------------------------
          Begin self-consistency iteration #    2

  Date     :  20220120, Time     :  152332.988
------------------------------------------------------------
  Evaluating new KS density.
  Integration grid: deviation in total charge (<rho> - N_e) =   1.905590E-07
  | <rho_up-rho_dn> = N_up-N_dn =     -2.0000; <|rho_up-rho_dn|> =      2.0000
  Pulay mixing of updated and previous charge densities.

  Evaluating partitioned Hartree potential by multipole expansion.
  | Analytical far-field extrapolation by fixed multipoles:
  | Hartree multipole sum: apparent total charge =  -0.129878E-04
  Summing up the Hartree potential.
  Time summed over all CPUs for potential: real work        0.030 s, elapsed        0.031 s
  | RMS charge density error from multipole expansion :   0.801748E-03

  Integrating Hamiltonian matrix: batch-based integration.
  Time summed over all CPUs for integration: real work        0.062 s, elapsed        0.067 s

  Updating Kohn-Sham eigenvalues, eigenvectors, occupation numbers, and Fermi level.
  Solving generalized eigenproblem
  Solving real symmetric generalised eigenvalue problem by standard ScaLAPACK.
  Using Cholesky factor for transformation
  Using 1-stage real ELPA solver
  Solving real symmetric generalised eigenvalue problem by standard ScaLAPACK.
  Using Cholesky factor for transformation
  Using 1-stage real ELPA solver
  Determining occupation numbers for Kohn-Sham eigenstates.
  | Chemical potential (Fermi level) in eV                 : -.85862233E+01
  | Error in electron count due to remaining E_F inaccuracy: 0.00000000E+00
  | Maximum occupation number of highest empty state:  0.00E+00

  Current spin moment of the entire structure :
  | N = N_up - N_down :    0.00
  | S                 :    0.00
  | J                 :    1.00

  Highest occupied state (VBM) at     -9.89865922 eV
  | Occupation number:      1.00000000
  | Spin channel:        2

  Lowest unoccupied state (CBM) at     1.28197760 eV
  | Occupation number:      0.00000000
  | Spin channel:        1

  Overall HOMO-LUMO gap:     11.18063681 eV.

  Total energy components:
  | Sum of eigenvalues            :          -0.98944722 Ha         -26.92422877 eV
  | XC energy correction          :          -0.58084080 Ha         -15.80548234 eV
  | XC potential correction       :           0.75000299 Ha          20.40861981 eV
  | Free-atom electrostatic energy:          -0.25123762 Ha          -6.83652338 eV
  | Hartree energy correction     :           0.02559820 Ha           0.69656245 eV
  | van der Waals energy corr.    :           0.00000000 Ha           0.00000000 eV
  | Entropy correction            :           0.00000000 Ha           0.00000000 eV
  | ---------------------------
  | Total energy                  :          -1.04592444 Ha         -28.46105222 eV
  | Total energy, T -> 0          :          -1.04592444 Ha         -28.46105222 eV  <-- do not rely on this value for anything but (periodic) metals
  | Electronic free energy        :          -1.04592444 Ha         -28.46105222 eV

  Derived energy quantities:
  | Kinetic energy                :           0.85367629 Ha          23.22971377 eV
  | Electrostatic energy          :          -1.31875993 Ha         -35.88528365 eV
  | Energy correction for multipole
  | error in Hartree potential    :          -0.00014883 Ha          -0.00404975 eV
  | Sum of eigenvalues per atom                           :         -13.46211438 eV
  | Total energy (T->0) per atom                          :         -14.23052611 eV  <-- do not rely on this value for anything but (periodic) metals
  | Electronic free energy per atom                       :         -14.23052611 eV

  Self-consistency convergence accuracy:
  | Change of charge/spin density : 0.1248E+00 0.2926E+00
  | Change of sum of eigenvalues  : -.4187E+01 eV
  | Change of total energy        : -.3471E+01 eV

  End self-consistency iteration #     2       :  max(cpu_time)    wall_clock(cpu1)
  | Time for this iteration                    :        0.023 s           0.024 s
  | Charge density update                      :        0.006 s           0.006 s
  | Density mixing                             :        0.001 s           0.002 s
  | Hartree multipole update                   :        0.001 s           0.001 s
  | Hartree multipole summation                :        0.004 s           0.004 s
  | Integration                                :        0.008 s           0.009 s
  | Solution of K.-S. eqns.                    :        0.001 s           0.001 s
  | Total energy evaluation                    :        0.000 s           0.001 s
------------------------------------------------------------

------------------------------------------------------------
          Begin self-consistency iteration #    3

  Date     :  20220120, Time     :  152333.017
------------------------------------------------------------
  Evaluating new KS density.
  Integration grid: deviation in total charge (<rho> - N_e) =   1.878719E-07
  | <rho_up-rho_dn> = N_up-N_dn =     -1.9577; <|rho_up-rho_dn|> =      1.9577
  Pulay mixing of updated and previous charge densities.

  Evaluating partitioned Hartree potential by multipole expansion.
  | Analytical far-field extrapolation by fixed multipoles:
  | Hartree multipole sum: apparent total charge =  -0.130525E-04
  Summing up the Hartree potential.
  Time summed over all CPUs for potential: real work        0.030 s, elapsed        0.031 s
  | RMS charge density error from multipole expansion :   0.770139E-03

  Integrating Hamiltonian matrix: batch-based integration.
  Time summed over all CPUs for integration: real work        0.061 s, elapsed        0.066 s

  Updating Kohn-Sham eigenvalues, eigenvectors, occupation numbers, and Fermi level.
  Solving generalized eigenproblem
  Solving real symmetric generalised eigenvalue problem by standard ScaLAPACK.
  Using Cholesky factor for transformation
  Using 1-stage real ELPA solver
  Solving real symmetric generalised eigenvalue problem by standard ScaLAPACK.
  Using Cholesky factor for transformation
  Using 1-stage real ELPA solver
  Determining occupation numbers for Kohn-Sham eigenstates.
  | Chemical potential (Fermi level) in eV                 : -.77596354E+01
  | Error in electron count due to remaining E_F inaccuracy: 0.00000000E+00
  | Maximum occupation number of highest empty state:  0.00E+00

  Current spin moment of the entire structure :
  | N = N_up - N_down :    0.00
  | S                 :    0.00
  | J                 :    1.00

  Highest occupied state (VBM) at     -9.44327738 eV
  | Occupation number:      1.00000000
  | Spin channel:        2

  Lowest unoccupied state (CBM) at     1.30833210 eV
  | Occupation number:      0.00000000
  | Spin channel:        1

  Overall HOMO-LUMO gap:     10.75160948 eV.

  Total energy components:
  | Sum of eigenvalues            :          -0.93428626 Ha         -25.42322273 eV
  | XC energy correction          :          -0.54617845 Ha         -14.86227170 eV
  | XC potential correction       :           0.70437446 Ha          19.16700437 eV
  | Free-atom electrostatic energy:          -0.25123762 Ha          -6.83652338 eV
  | Hartree energy correction     :           0.03067667 Ha           0.83475479 eV
  | van der Waals energy corr.    :           0.00000000 Ha           0.00000000 eV
  | Entropy correction            :           0.00000000 Ha           0.00000000 eV
  | ---------------------------
  | Total energy                  :          -0.99665119 Ha         -27.12025865 eV
  | Total energy, T -> 0          :          -0.99665119 Ha         -27.12025865 eV  <-- do not rely on this value for anything but (periodic) metals
  | Electronic free energy        :          -0.99665119 Ha         -27.12025865 eV

  Derived energy quantities:
  | Kinetic energy                :           0.85628009 Ha          23.30056667 eV
  | Electrostatic energy          :          -1.30675283 Ha         -35.55855362 eV
  | Energy correction for multipole
  | error in Hartree potential    :          -0.00014052 Ha          -0.00382387 eV
  | Sum of eigenvalues per atom                           :         -12.71161137 eV
  | Total energy (T->0) per atom                          :         -13.56012933 eV  <-- do not rely on this value for anything but (periodic) metals
  | Electronic free energy per atom                       :         -13.56012933 eV

  Self-consistency convergence accuracy:
  | Change of charge/spin density : 0.1803E+00 0.2754E+00
  | Change of sum of eigenvalues  : 0.1501E+01 eV
  | Change of total energy        : 0.1341E+01 eV

  End self-consistency iteration #     3       :  max(cpu_time)    wall_clock(cpu1)
  | Time for this iteration                    :        0.026 s           0.024 s
  | Charge density update                      :        0.009 s           0.005 s
  | Density mixing                             :        0.001 s           0.003 s
  | Hartree multipole update                   :        0.001 s           0.001 s
  | Hartree multipole summation                :        0.004 s           0.004 s
  | Integration                                :        0.008 s           0.009 s
  | Solution of K.-S. eqns.                    :        0.001 s           0.001 s
  | Total energy evaluation                    :        0.000 s           0.000 s
------------------------------------------------------------

------------------------------------------------------------
          Begin self-consistency iteration #    4

  Date     :  20220120, Time     :  152333.043
------------------------------------------------------------
  Evaluating new KS density.
  Integration grid: deviation in total charge (<rho> - N_e) =   1.880824E-07
  | <rho_up-rho_dn> = N_up-N_dn =     -1.9596; <|rho_up-rho_dn|> =      1.9596
  Pulay mixing of updated and previous charge densities.

  Evaluating partitioned Hartree potential by multipole expansion.
  | Analytical far-field extrapolation by fixed multipoles:
  | Hartree multipole sum: apparent total charge =  -0.127459E-04
  Summing up the Hartree potential.
  Time summed over all CPUs for potential: real work        0.030 s, elapsed        0.031 s
  | RMS charge density error from multipole expansion :   0.523160E-03

  Integrating Hamiltonian matrix: batch-based integration.
  Time summed over all CPUs for integration: real work        0.062 s, elapsed        0.066 s

  Updating Kohn-Sham eigenvalues, eigenvectors, occupation numbers, and Fermi level.
  Solving generalized eigenproblem
  Solving real symmetric generalised eigenvalue problem by standard ScaLAPACK.
  Using Cholesky factor for transformation
  Using 1-stage real ELPA solver
  Solving real symmetric generalised eigenvalue problem by standard ScaLAPACK.
  Using Cholesky factor for transformation
  Using 1-stage real ELPA solver
  Determining occupation numbers for Kohn-Sham eigenstates.
  | Chemical potential (Fermi level) in eV                 : -.74035071E+01
  | Error in electron count due to remaining E_F inaccuracy: 0.00000000E+00
  | Maximum occupation number of highest empty state:  0.00E+00

  Current spin moment of the entire structure :
  | N = N_up - N_down :    0.00
  | S                 :    0.00
  | J                 :    1.00

  Highest occupied state (VBM) at    -10.51848404 eV
  | Occupation number:      1.00000000
  | Spin channel:        2

  Lowest unoccupied state (CBM) at     0.52529064 eV
  | Occupation number:      0.00000000
  | Spin channel:        1

  Overall HOMO-LUMO gap:     11.04377468 eV.

  Total energy components:
  | Sum of eigenvalues            :          -0.94232012 Ha         -25.64183505 eV
  | XC energy correction          :          -0.51834912 Ha         -14.10499722 eV
  | XC potential correction       :           0.66747822 Ha          18.16300662 eV
  | Free-atom electrostatic energy:          -0.25123762 Ha          -6.83652338 eV
  | Hartree energy correction     :           0.05643526 Ha           1.53568164 eV
  | van der Waals energy corr.    :           0.00000000 Ha           0.00000000 eV
  | Entropy correction            :           0.00000000 Ha           0.00000000 eV
  | ---------------------------
  | Total energy                  :          -0.98799337 Ha         -26.88466739 eV
  | Total energy, T -> 0          :          -0.98799337 Ha         -26.88466739 eV  <-- do not rely on this value for anything but (periodic) metals
  | Electronic free energy        :          -0.98799337 Ha         -26.88466739 eV

  Derived energy quantities:
  | Kinetic energy                :           0.73085182 Ha          19.88748985 eV
  | Electrostatic energy          :          -1.20049607 Ha         -32.66716002 eV
  | Energy correction for multipole
  | error in Hartree potential    :          -0.00003233 Ha          -0.00087979 eV
  | Sum of eigenvalues per atom                           :         -12.82091753 eV
  | Total energy (T->0) per atom                          :         -13.44233370 eV  <-- do not rely on this value for anything but (periodic) metals
  | Electronic free energy per atom                       :         -13.44233370 eV

  Self-consistency convergence accuracy:
  | Change of charge/spin density : 0.1567E+00 0.2797E+00
  | Change of sum of eigenvalues  : -.2186E+00 eV
  | Change of total energy        : 0.2356E+00 eV

  End self-consistency iteration #     4       :  max(cpu_time)    wall_clock(cpu1)
  | Time for this iteration                    :        0.023 s           0.022 s
  | Charge density update                      :        0.006 s           0.005 s
  | Density mixing                             :        0.001 s           0.001 s
  | Hartree multipole update                   :        0.001 s           0.002 s
  | Hartree multipole summation                :        0.004 s           0.004 s
  | Integration                                :        0.008 s           0.008 s
  | Solution of K.-S. eqns.                    :        0.001 s           0.001 s
  | Total energy evaluation                    :        0.000 s           0.000 s
------------------------------------------------------------

------------------------------------------------------------
          Begin self-consistency iteration #    5

  Date     :  20220120, Time     :  152333.068
------------------------------------------------------------
  Evaluating new KS density.
  Integration grid: deviation in total charge (<rho> - N_e) =   1.755369E-07
  | <rho_up-rho_dn> = N_up-N_dn =     -1.7881; <|rho_up-rho_dn|> =      1.7881
  Pulay mixing of updated and previous charge densities.

  Evaluating partitioned Hartree potential by multipole expansion.
  | Analytical far-field extrapolation by fixed multipoles:
  | Hartree multipole sum: apparent total charge =  -0.113977E-04
  Summing up the Hartree potential.
  Time summed over all CPUs for potential: real work        0.030 s, elapsed        0.031 s
  | RMS charge density error from multipole expansion :   0.312948E-02

  Integrating Hamiltonian matrix: batch-based integration.
  Time summed over all CPUs for integration: real work        0.064 s, elapsed        0.068 s

  Updating Kohn-Sham eigenvalues, eigenvectors, occupation numbers, and Fermi level.
  Solving generalized eigenproblem
  Solving real symmetric generalised eigenvalue problem by standard ScaLAPACK.
  Using Cholesky factor for transformation
  Using 1-stage real ELPA solver
  Solving real symmetric generalised eigenvalue problem by standard ScaLAPACK.
  Using Cholesky factor for transformation
  Using 1-stage real ELPA solver
  Determining occupation numbers for Kohn-Sham eigenstates.
  | Chemical potential (Fermi level) in eV                 : -.14771860E+02
  | Error in electron count due to remaining E_F inaccuracy: 0.00000000E+00
  | Maximum occupation number of highest empty state:  0.00E+00

  Current spin moment of the entire structure :
  | N = N_up - N_down :    0.00
  | S                 :    0.00
  | J                 :    1.00

  Highest occupied state (VBM) at    -15.74800391 eV
  | Occupation number:      1.00000000
  | Spin channel:        2

  Lowest unoccupied state (CBM) at    -1.26860356 eV
  | Occupation number:      0.00000000
  | Spin channel:        1

  Overall HOMO-LUMO gap:     14.47940035 eV.

  Total energy components:
  | Sum of eigenvalues            :          -1.21834968 Ha         -33.15298151 eV
  | XC energy correction          :          -0.58980464 Ha         -16.04940074 eV
  | XC potential correction       :           0.75751225 Ha          20.61295704 eV
  | Free-atom electrostatic energy:          -0.25123762 Ha          -6.83652338 eV
  | Hartree energy correction     :           0.15148604 Ha           4.12214495 eV
  | van der Waals energy corr.    :           0.00000000 Ha           0.00000000 eV
  | Entropy correction            :           0.00000000 Ha           0.00000000 eV
  | ---------------------------
  | Total energy                  :          -1.15039364 Ha         -31.30380364 eV
  | Total energy, T -> 0          :          -1.15039364 Ha         -31.30380364 eV  <-- do not rely on this value for anything but (periodic) metals
  | Electronic free energy        :          -1.15039364 Ha         -31.30380364 eV

  Derived energy quantities:
  | Kinetic energy                :          -0.22142616 Ha          -6.02531238 eV
  | Electrostatic energy          :          -0.33916284 Ha          -9.22909052 eV
  | Energy correction for multipole
  | error in Hartree potential    :           0.00067814 Ha           0.01845323 eV
  | Sum of eigenvalues per atom                           :         -16.57649075 eV
  | Total energy (T->0) per atom                          :         -15.65190182 eV  <-- do not rely on this value for anything but (periodic) metals
  | Electronic free energy per atom                       :         -15.65190182 eV

  Self-consistency convergence accuracy:
  | Change of charge/spin density : 0.1697E+00 0.2592E+00
  | Change of sum of eigenvalues  : -.7511E+01 eV
  | Change of total energy        : -.4419E+01 eV

  End self-consistency iteration #     5       :  max(cpu_time)    wall_clock(cpu1)
  | Time for this iteration                    :        0.024 s           0.023 s
  | Charge density update                      :        0.006 s           0.006 s
  | Density mixing                             :        0.001 s           0.001 s
  | Hartree multipole update                   :        0.001 s           0.001 s
  | Hartree multipole summation                :        0.004 s           0.004 s
  | Integration                                :        0.009 s           0.009 s
  | Solution of K.-S. eqns.                    :        0.001 s           0.001 s
  | Total energy evaluation                    :        0.000 s           0.000 s
------------------------------------------------------------

------------------------------------------------------------
          Begin self-consistency iteration #    6

  Date     :  20220120, Time     :  152333.093
------------------------------------------------------------
  Evaluating new KS density.
  Integration grid: deviation in total charge (<rho> - N_e) =   9.767471E-08
  | <rho_up-rho_dn> = N_up-N_dn =     -0.8317; <|rho_up-rho_dn|> =      1.0240
  Pulay mixing of updated and previous charge densities.

  Evaluating partitioned Hartree potential by multipole expansion.
  | Analytical far-field extrapolation by fixed multipoles:
  | Hartree multipole sum: apparent total charge =  -0.113697E-04
  Summing up the Hartree potential.
  Time summed over all CPUs for potential: real work        0.030 s, elapsed        0.031 s
  | RMS charge density error from multipole expansion :   0.552755E-02

  Integrating Hamiltonian matrix: batch-based integration.
  Time summed over all CPUs for integration: real work        0.065 s, elapsed        0.070 s

  Updating Kohn-Sham eigenvalues, eigenvectors, occupation numbers, and Fermi level.
  Solving generalized eigenproblem
  Solving real symmetric generalised eigenvalue problem by standard ScaLAPACK.
  Using Cholesky factor for transformation
  Using 1-stage real ELPA solver
  Solving real symmetric generalised eigenvalue problem by standard ScaLAPACK.
  Using Cholesky factor for transformation
  Using 1-stage real ELPA solver
  Determining occupation numbers for Kohn-Sham eigenstates.
  | Chemical potential (Fermi level) in eV                 : -.17811968E+02
  | Error in electron count due to remaining E_F inaccuracy: 0.00000000E+00
  | Maximum occupation number of highest empty state:  0.00E+00

  Current spin moment of the entire structure :
  | N = N_up - N_down :    0.00
  | S                 :    0.00
  | J                 :    1.00

  Highest occupied state (VBM) at    -19.49292829 eV
  | Occupation number:      1.00000000
  | Spin channel:        2

  Lowest unoccupied state (CBM) at    -2.26753748 eV
  | Occupation number:      0.00000000
  | Spin channel:        1

  Overall HOMO-LUMO gap:     17.22539081 eV.

  Total energy components:
  | Sum of eigenvalues            :          -1.47289636 Ha         -40.07954922 eV
  | XC energy correction          :          -0.68138918 Ha         -18.54154304 eV
  | XC potential correction       :           0.87547924 Ha          23.82300210 eV
  | Free-atom electrostatic energy:          -0.25123762 Ha          -6.83652338 eV
  | Hartree energy correction     :           0.13758547 Ha           3.74389103 eV
  | van der Waals energy corr.    :           0.00000000 Ha           0.00000000 eV
  | Entropy correction            :           0.00000000 Ha           0.00000000 eV
  | ---------------------------
  | Total energy                  :          -1.39245846 Ha         -37.89072250 eV
  | Total energy, T -> 0          :          -1.39245846 Ha         -37.89072250 eV  <-- do not rely on this value for anything but (periodic) metals
  | Electronic free energy        :          -1.39245846 Ha         -37.89072250 eV

  Derived energy quantities:
  | Kinetic energy                :          -1.16235483 Ha         -31.62928409 eV
  | Electrostatic energy          :           0.45128555 Ha          12.28010462 eV
  | Energy correction for multipole
  | error in Hartree potential    :           0.00123965 Ha           0.03373252 eV
  | Sum of eigenvalues per atom                           :         -20.03977461 eV
  | Total energy (T->0) per atom                          :         -18.94536125 eV  <-- do not rely on this value for anything but (periodic) metals
  | Electronic free energy per atom                       :         -18.94536125 eV

  Self-consistency convergence accuracy:
  | Change of charge/spin density : 0.5232E+00 0.1594E+00
  | Change of sum of eigenvalues  : -.6927E+01 eV
  | Change of total energy        : -.6587E+01 eV

  End self-consistency iteration #     6       :  max(cpu_time)    wall_clock(cpu1)
  | Time for this iteration                    :        0.024 s           0.023 s
  | Charge density update                      :        0.006 s           0.005 s
  | Density mixing                             :        0.001 s           0.002 s
  | Hartree multipole update                   :        0.001 s           0.001 s
  | Hartree multipole summation                :        0.004 s           0.004 s
  | Integration                                :        0.009 s           0.009 s
  | Solution of K.-S. eqns.                    :        0.001 s           0.001 s
  | Total energy evaluation                    :        0.000 s           0.000 s
------------------------------------------------------------

------------------------------------------------------------
          Begin self-consistency iteration #    7

  Date     :  20220120, Time     :  152333.119
------------------------------------------------------------
  Evaluating new KS density.
  Integration grid: deviation in total charge (<rho> - N_e) =   5.629927E-08
  | <rho_up-rho_dn> = N_up-N_dn =     -0.3893; <|rho_up-rho_dn|> =      0.9746
  Pulay mixing of updated and previous charge densities.

  Evaluating partitioned Hartree potential by multipole expansion.
  | Analytical far-field extrapolation by fixed multipoles:
  | Hartree multipole sum: apparent total charge =  -0.134790E-04
  Summing up the Hartree potential.
  Time summed over all CPUs for potential: real work        0.030 s, elapsed        0.030 s
  | RMS charge density error from multipole expansion :   0.886894E-02

  Integrating Hamiltonian matrix: batch-based integration.
  Time summed over all CPUs for integration: real work        0.065 s, elapsed        0.070 s

  Updating Kohn-Sham eigenvalues, eigenvectors, occupation numbers, and Fermi level.
  Solving generalized eigenproblem
  Solving real symmetric generalised eigenvalue problem by standard ScaLAPACK.
  Using Cholesky factor for transformation
  Using 1-stage real ELPA solver
  Solving real symmetric generalised eigenvalue problem by standard ScaLAPACK.
  Using Cholesky factor for transformation
  Using 1-stage real ELPA solver
  Determining occupation numbers for Kohn-Sham eigenstates.
  | Chemical potential (Fermi level) in eV                 : -.24475913E+02
  | Error in electron count due to remaining E_F inaccuracy: 0.00000000E+00
  | Maximum occupation number of highest empty state:  0.00E+00

  Current spin moment of the entire structure :
  | N = N_up - N_down :    0.00
  | S                 :    0.00
  | J                 :    1.00

  Highest occupied state (VBM) at    -26.53686346 eV
  | Occupation number:      1.00000000
  | Spin channel:        2

  Lowest unoccupied state (CBM) at    -4.44529504 eV
  | Occupation number:      0.00000000
  | Spin channel:        1

  Overall HOMO-LUMO gap:     22.09156842 eV.

  Total energy components:
  | Sum of eigenvalues            :          -1.99063291 Ha         -54.16787745 eV
  | XC energy correction          :          -0.82548754 Ha         -22.46265892 eV
  | XC potential correction       :           1.06167155 Ha          28.88955273 eV
  | Free-atom electrostatic energy:          -0.25123762 Ha          -6.83652338 eV
  | Hartree energy correction     :          -0.03275030 Ha          -0.89118106 eV
  | van der Waals energy corr.    :           0.00000000 Ha           0.00000000 eV
  | Entropy correction            :           0.00000000 Ha           0.00000000 eV
  | ---------------------------
  | Total energy                  :          -2.03843682 Ha         -55.46868808 eV
  | Total energy, T -> 0          :          -2.03843682 Ha         -55.46868808 eV  <-- do not rely on this value for anything but (periodic) metals
  | Electronic free energy        :          -2.03843682 Ha         -55.46868808 eV

  Derived energy quantities:
  | Kinetic energy                :          -3.02037140 Ha         -82.18848760 eV
  | Electrostatic energy          :           1.80742213 Ha          49.18245845 eV
  | Energy correction for multipole
  | error in Hartree potential    :           0.00202480 Ha           0.05509755 eV
  | Sum of eigenvalues per atom                           :         -27.08393872 eV
  | Total energy (T->0) per atom                          :         -27.73434404 eV  <-- do not rely on this value for anything but (periodic) metals
  | Electronic free energy per atom                       :         -27.73434404 eV

  Self-consistency convergence accuracy:
  | Change of charge/spin density : 0.8149E+00 0.2622E+00
  | Change of sum of eigenvalues  : -.1409E+02 eV
  | Change of total energy        : -.1758E+02 eV

  End self-consistency iteration #     7       :  max(cpu_time)    wall_clock(cpu1)
  | Time for this iteration                    :        0.024 s           0.023 s
  | Charge density update                      :        0.006 s           0.005 s
  | Density mixing                             :        0.001 s           0.001 s
  | Hartree multipole update                   :        0.001 s           0.002 s
  | Hartree multipole summation                :        0.004 s           0.004 s
  | Integration                                :        0.009 s           0.009 s
  | Solution of K.-S. eqns.                    :        0.001 s           0.001 s
  | Total energy evaluation                    :        0.000 s           0.001 s
------------------------------------------------------------

------------------------------------------------------------
          Begin self-consistency iteration #    8

  Date     :  20220120, Time     :  152333.147
------------------------------------------------------------
  Evaluating new KS density.
  Integration grid: deviation in total charge (<rho> - N_e) =   3.133771E-08
  | <rho_up-rho_dn> = N_up-N_dn =     -0.1917; <|rho_up-rho_dn|> =      1.2530
  Pulay mixing of updated and previous charge densities.

  Evaluating partitioned Hartree potential by multipole expansion.
  | Analytical far-field extrapolation by fixed multipoles:
  | Hartree multipole sum: apparent total charge =  -0.181972E-04
  Summing up the Hartree potential.
  Time summed over all CPUs for potential: real work        0.030 s, elapsed        0.031 s
  | RMS charge density error from multipole expansion :   0.137870E-01

  Integrating Hamiltonian matrix: batch-based integration.
  Time summed over all CPUs for integration: real work        0.065 s, elapsed        0.069 s

  Updating Kohn-Sham eigenvalues, eigenvectors, occupation numbers, and Fermi level.
  Solving generalized eigenproblem
  Solving real symmetric generalised eigenvalue problem by standard ScaLAPACK.
  Using Cholesky factor for transformation
  Using 1-stage real ELPA solver
  Solving real symmetric generalised eigenvalue problem by standard ScaLAPACK.
  Using Cholesky factor for transformation
  Using 1-stage real ELPA solver
  Determining occupation numbers for Kohn-Sham eigenstates.
  | Chemical potential (Fermi level) in eV                 : -.37026626E+02
  | Error in electron count due to remaining E_F inaccuracy: 0.00000000E+00
  | Maximum occupation number of highest empty state:  0.00E+00

  Current spin moment of the entire structure :
  | N = N_up - N_down :    0.00
  | S                 :    0.00
  | J                 :    1.00

  Highest occupied state (VBM) at    -40.22881224 eV
  | Occupation number:      1.00000000
  | Spin channel:        2

  Lowest unoccupied state (CBM) at    -9.55843178 eV
  | Occupation number:      0.00000000
  | Spin channel:        1

  Overall HOMO-LUMO gap:     30.67038047 eV.

  Total energy components:
  | Sum of eigenvalues            :          -2.98763548 Ha         -81.29769776 eV
  | XC energy correction          :          -1.09226400 Ha         -29.72201572 eV
  | XC potential correction       :           1.40675283 Ha          38.27969208 eV
  | Free-atom electrostatic energy:          -0.25123762 Ha          -6.83652338 eV
  | Hartree energy correction     :          -0.76212783 Ha         -20.73855343 eV
  | van der Waals energy corr.    :           0.00000000 Ha           0.00000000 eV
  | Entropy correction            :           0.00000000 Ha           0.00000000 eV
  | ---------------------------
  | Total energy                  :          -3.68651210 Ha        -100.31509820 eV
  | Total energy, T -> 0          :          -3.68651210 Ha        -100.31509820 eV  <-- do not rely on this value for anything but (periodic) metals
  | Electronic free energy        :          -3.68651210 Ha        -100.31509820 eV

  Derived energy quantities:
  | Kinetic energy                :          -6.97882244 Ha        -189.90342066 eV
  | Electrostatic energy          :           4.38457434 Ha         119.31033818 eV
  | Energy correction for multipole
  | error in Hartree potential    :           0.00316807 Ha           0.08620764 eV
  | Sum of eigenvalues per atom                           :         -40.64884888 eV
  | Total energy (T->0) per atom                          :         -50.15754910 eV  <-- do not rely on this value for anything but (periodic) metals
  | Electronic free energy per atom                       :         -50.15754910 eV

  Self-consistency convergence accuracy:
  | Change of charge/spin density : 0.1248E+01 0.4100E+00
  | Change of sum of eigenvalues  : -.2713E+02 eV
  | Change of total energy        : -.4485E+02 eV

  End self-consistency iteration #     8       :  max(cpu_time)    wall_clock(cpu1)
  | Time for this iteration                    :        0.028 s           0.024 s
  | Charge density update                      :        0.010 s           0.006 s
  | Density mixing                             :        0.002 s           0.002 s
  | Hartree multipole update                   :        0.001 s           0.001 s
  | Hartree multipole summation                :        0.004 s           0.004 s
  | Integration                                :        0.009 s           0.009 s
  | Solution of K.-S. eqns.                    :        0.001 s           0.001 s
  | Total energy evaluation                    :        0.000 s           0.001 s
------------------------------------------------------------

------------------------------------------------------------
          Begin self-consistency iteration #    9

  Date     :  20220120, Time     :  152333.173
------------------------------------------------------------
  Evaluating new KS density.
  Integration grid: deviation in total charge (<rho> - N_e) =   1.349914E-08
  | <rho_up-rho_dn> = N_up-N_dn =     -0.0219; <|rho_up-rho_dn|> =      1.9171
  Pulay mixing of updated and previous charge densities.

  Evaluating partitioned Hartree potential by multipole expansion.
  | Analytical far-field extrapolation by fixed multipoles:
  | Hartree multipole sum: apparent total charge =  -0.157580E-04
  Summing up the Hartree potential.
  Time summed over all CPUs for potential: real work        0.031 s, elapsed        0.031 s
  | RMS charge density error from multipole expansion :   0.116069E-01

  Integrating Hamiltonian matrix: batch-based integration.
  Time summed over all CPUs for integration: real work        0.065 s, elapsed        0.070 s

  Updating Kohn-Sham eigenvalues, eigenvectors, occupation numbers, and Fermi level.
  Solving generalized eigenproblem
  Solving real symmetric generalised eigenvalue problem by standard ScaLAPACK.
  Using Cholesky factor for transformation
  Using 1-stage real ELPA solver
  Solving real symmetric generalised eigenvalue problem by standard ScaLAPACK.
  Using Cholesky factor for transformation
  Using 1-stage real ELPA solver
  Determining occupation numbers for Kohn-Sham eigenstates.
  | Chemical potential (Fermi level) in eV                 : -.30997130E+02
  | Error in electron count due to remaining E_F inaccuracy: 0.00000000E+00
  | Maximum occupation number of highest empty state:  0.00E+00

  Current spin moment of the entire structure :
  | N = N_up - N_down :    0.00
  | S                 :    0.00
  | J                 :    1.00

  Highest occupied state (VBM) at    -33.59661932 eV
  | Occupation number:      1.00000000
  | Spin channel:        2

  Lowest unoccupied state (CBM) at    -6.97121916 eV
  | Occupation number:      0.00000000
  | Spin channel:        1

  Overall HOMO-LUMO gap:     26.62540016 eV.

  Total energy components:
  | Sum of eigenvalues            :          -2.50452544 Ha         -68.15160463 eV
  | XC energy correction          :          -0.97124109 Ha         -26.42881465 eV
  | XC potential correction       :           1.25011004 Ha          34.01722501 eV
  | Free-atom electrostatic energy:          -0.25123762 Ha          -6.83652338 eV
  | Hartree energy correction     :          -0.36381675 Ha          -9.89995753 eV
  | van der Waals energy corr.    :           0.00000000 Ha           0.00000000 eV
  | Entropy correction            :           0.00000000 Ha           0.00000000 eV
  | ---------------------------
  | Total energy                  :          -2.84071085 Ha         -77.29967517 eV
  | Total energy, T -> 0          :          -2.84071085 Ha         -77.29967517 eV  <-- do not rely on this value for anything but (periodic) metals
  | Electronic free energy        :          -2.84071085 Ha         -77.29967517 eV

  Derived energy quantities:
  | Kinetic energy                :          -5.01167469 Ha        -136.37460711 eV
  | Electrostatic energy          :           3.14220493 Ha          85.50374659 eV
  | Energy correction for multipole
  | error in Hartree potential    :           0.00267329 Ha           0.07274388 eV
  | Sum of eigenvalues per atom                           :         -34.07580231 eV
  | Total energy (T->0) per atom                          :         -38.64983759 eV  <-- do not rely on this value for anything but (periodic) metals
  | Electronic free energy per atom                       :         -38.64983759 eV

  Self-consistency convergence accuracy:
  | Change of charge/spin density : 0.1916E+01 0.6649E+00
  | Change of sum of eigenvalues  : 0.1315E+02 eV
  | Change of total energy        : 0.2302E+02 eV

  End self-consistency iteration #     9       :  max(cpu_time)    wall_clock(cpu1)
  | Time for this iteration                    :        0.024 s           0.024 s
  | Charge density update                      :        0.006 s           0.005 s
  | Density mixing                             :        0.002 s           0.002 s
  | Hartree multipole update                   :        0.001 s           0.001 s
  | Hartree multipole summation                :        0.004 s           0.004 s
  | Integration                                :        0.009 s           0.009 s
  | Solution of K.-S. eqns.                    :        0.001 s           0.002 s
  | Total energy evaluation                    :        0.000 s           0.001 s
------------------------------------------------------------

------------------------------------------------------------
          Begin self-consistency iteration #   10

  Date     :  20220120, Time     :  152333.198
------------------------------------------------------------
  Evaluating new KS density.
  Integration grid: deviation in total charge (<rho> - N_e) =   1.668008E-08
  | <rho_up-rho_dn> = N_up-N_dn =     -0.0789; <|rho_up-rho_dn|> =      1.6146
  Pulay mixing of updated and previous charge densities.

  Evaluating partitioned Hartree potential by multipole expansion.
  | Analytical far-field extrapolation by fixed multipoles:
  | Hartree multipole sum: apparent total charge =  -0.313047E-05
  Summing up the Hartree potential.
  Time summed over all CPUs for potential: real work        0.030 s, elapsed        0.031 s
  | RMS charge density error from multipole expansion :   0.224854E-02

  Integrating Hamiltonian matrix: batch-based integration.
  Time summed over all CPUs for integration: real work        0.066 s, elapsed        0.071 s

  Updating Kohn-Sham eigenvalues, eigenvectors, occupation numbers, and Fermi level.
  Solving generalized eigenproblem
  Solving real symmetric generalised eigenvalue problem by standard ScaLAPACK.
  Using Cholesky factor for transformation
  Using 1-stage real ELPA solver
  Solving real symmetric generalised eigenvalue problem by standard ScaLAPACK.
  Using Cholesky factor for transformation
  Using 1-stage real ELPA solver
  Determining occupation numbers for Kohn-Sham eigenstates.
  | Chemical potential (Fermi level) in eV                 : -.10154325E+02
  | Error in electron count due to remaining E_F inaccuracy: 0.00000000E+00
  | Maximum occupation number of highest empty state:  0.00E+00

  Current spin moment of the entire structure :
  | N = N_up - N_down :    0.00
  | S                 :    0.00
  | J                 :    1.00

  Highest occupied state (VBM) at    -12.23054971 eV
  | Occupation number:      1.00000000
  | Spin channel:        1

  Lowest unoccupied state (CBM) at     0.53807151 eV
  | Occupation number:      0.00000000
  | Spin channel:        1

  Overall HOMO-LUMO gap:     12.76862122 eV.

  Total energy components:
  | Sum of eigenvalues            :          -0.91085840 Ha         -24.78571821 eV
  | XC energy correction          :          -0.65907966 Ha         -17.93446998 eV
  | XC potential correction       :           0.84653085 Ha          23.03527649 eV
  | Free-atom electrostatic energy:          -0.25123762 Ha          -6.83652338 eV
  | Hartree energy correction     :          -0.10255898 Ha          -2.79077186 eV
  | van der Waals energy corr.    :           0.00000000 Ha           0.00000000 eV
  | Entropy correction            :           0.00000000 Ha           0.00000000 eV
  | ---------------------------
  | Total energy                  :          -1.07720381 Ha         -29.31220693 eV
  | Total energy, T -> 0          :          -1.07720381 Ha         -29.31220693 eV  <-- do not rely on this value for anything but (periodic) metals
  | Electronic free energy        :          -1.07720381 Ha         -29.31220693 eV

  Derived energy quantities:
  | Kinetic energy                :           0.57404934 Ha          15.62067720 eV
  | Electrostatic energy          :          -0.99217348 Ha         -26.99841416 eV
  | Energy correction for multipole
  | error in Hartree potential    :           0.00062205 Ha           0.01692696 eV
  | Sum of eigenvalues per atom                           :         -12.39285910 eV
  | Total energy (T->0) per atom                          :         -14.65610347 eV  <-- do not rely on this value for anything but (periodic) metals
  | Electronic free energy per atom                       :         -14.65610347 eV

  Self-consistency convergence accuracy:
  | Change of charge/spin density : 0.1618E+01 0.5520E+00
  | Change of sum of eigenvalues  : 0.4337E+02 eV
  | Change of total energy        : 0.4799E+02 eV

  End self-consistency iteration #    10       :  max(cpu_time)    wall_clock(cpu1)
  | Time for this iteration                    :        0.024 s           0.024 s
  | Charge density update                      :        0.006 s           0.006 s
  | Density mixing                             :        0.002 s           0.001 s
  | Hartree multipole update                   :        0.001 s           0.002 s
  | Hartree multipole summation                :        0.004 s           0.004 s
  | Integration                                :        0.009 s           0.009 s
  | Solution of K.-S. eqns.                    :        0.001 s           0.001 s
  | Total energy evaluation                    :        0.000 s           0.001 s
------------------------------------------------------------

------------------------------------------------------------
          Begin self-consistency iteration #   11

  Date     :  20220120, Time     :  152333.228
------------------------------------------------------------
  Evaluating new KS density.
  Integration grid: deviation in total charge (<rho> - N_e) =   4.156058E-09
  | <rho_up-rho_dn> = N_up-N_dn =     -0.0034; <|rho_up-rho_dn|> =      0.2731
  Pulay mixing of updated and previous charge densities.

  Evaluating partitioned Hartree potential by multipole expansion.
  | Analytical far-field extrapolation by fixed multipoles:
  | Hartree multipole sum: apparent total charge =  -0.814770E-05
  Summing up the Hartree potential.
  Time summed over all CPUs for potential: real work        0.030 s, elapsed        0.031 s
  | RMS charge density error from multipole expansion :   0.646449E-02

  Integrating Hamiltonian matrix: batch-based integration.
  Time summed over all CPUs for integration: real work        0.065 s, elapsed        0.069 s

  Updating Kohn-Sham eigenvalues, eigenvectors, occupation numbers, and Fermi level.
  Solving generalized eigenproblem
  Solving real symmetric generalised eigenvalue problem by standard ScaLAPACK.
  Using Cholesky factor for transformation
  Using 1-stage real ELPA solver
  Solving real symmetric generalised eigenvalue problem by standard ScaLAPACK.
  Using Cholesky factor for transformation
  Using 1-stage real ELPA solver
  Determining occupation numbers for Kohn-Sham eigenstates.
  | Chemical potential (Fermi level) in eV                 : -.17273885E+02
  | Error in electron count due to remaining E_F inaccuracy: 0.00000000E+00
  | Maximum occupation number of highest empty state:  0.00E+00

  Current spin moment of the entire structure :
  | N = N_up - N_down :    0.00
  | S                 :    0.00
  | J                 :    1.00

  Highest occupied state (VBM) at    -19.59374735 eV
  | Occupation number:      1.00000000
  | Spin channel:        2

  Lowest unoccupied state (CBM) at    -1.61383750 eV
  | Occupation number:      0.00000000
  | Spin channel:        1

  Overall HOMO-LUMO gap:     17.97990985 eV.

  Total energy components:
  | Sum of eigenvalues            :          -1.45648094 Ha         -39.63286296 eV
  | XC energy correction          :          -0.74126671 Ha         -20.17089344 eV
  | XC potential correction       :           0.95241444 Ha          25.91651545 eV
  | Free-atom electrostatic energy:          -0.25123762 Ha          -6.83652338 eV
  | Hartree energy correction     :           0.05921350 Ha           1.61128145 eV
  | van der Waals energy corr.    :           0.00000000 Ha           0.00000000 eV
  | Entropy correction            :           0.00000000 Ha           0.00000000 eV
  | ---------------------------
  | Total energy                  :          -1.43735733 Ha         -39.11248288 eV
  | Total energy, T -> 0          :          -1.43735733 Ha         -39.11248288 eV  <-- do not rely on this value for anything but (periodic) metals
  | Electronic free energy        :          -1.43735733 Ha         -39.11248288 eV

  Derived energy quantities:
  | Kinetic energy                :          -1.26013323 Ha         -34.28996997 eV
  | Electrostatic energy          :           0.56404262 Ha          15.34838053 eV
  | Energy correction for multipole
  | error in Hartree potential    :           0.00162092 Ha           0.04410739 eV
  | Sum of eigenvalues per atom                           :         -19.81643148 eV
  | Total energy (T->0) per atom                          :         -19.55624144 eV  <-- do not rely on this value for anything but (periodic) metals
  | Electronic free energy per atom                       :         -19.55624144 eV

[...]
  | Change of sum of eigenvalues  : -.4740E-04 eV
  | Change of total energy        : -.5972E-09 eV

  End self-consistency iteration #    25       :  max(cpu_time)    wall_clock(cpu1)
  | Time for this iteration                    :        0.026 s           0.025 s
  | Charge density update                      :        0.007 s           0.006 s
  | Density mixing                             :        0.002 s           0.002 s
  | Hartree multipole update                   :        0.001 s           0.001 s
  | Hartree multipole summation                :        0.004 s           0.004 s
  | Integration                                :        0.009 s           0.010 s
  | Solution of K.-S. eqns.                    :        0.001 s           0.001 s
  | Total energy evaluation                    :        0.000 s           0.001 s
------------------------------------------------------------

------------------------------------------------------------
          Begin self-consistency iteration #   26

  Date     :  20220120, Time     :  152333.638
------------------------------------------------------------
  Evaluating new KS density.
  Integration grid: deviation in total charge (<rho> - N_e) =  -1.062705E-12
  | <rho_up-rho_dn> = N_up-N_dn =      0.0000; <|rho_up-rho_dn|> =      0.0000
  Pulay mixing of updated and previous charge densities.

  Evaluating partitioned Hartree potential by multipole expansion.
  | Analytical far-field extrapolation by fixed multipoles:
  | Hartree multipole sum: apparent total charge =   0.874048E-06
  Summing up the Hartree potential.
  Time summed over all CPUs for potential: real work        0.031 s, elapsed        0.031 s
  | RMS charge density error from multipole expansion :   0.148457E-02

  Integrating Hamiltonian matrix: batch-based integration.
  Time summed over all CPUs for integration: real work        0.068 s, elapsed        0.074 s

  Updating Kohn-Sham eigenvalues, eigenvectors, occupation numbers, and Fermi level.
  Solving generalized eigenproblem
  Solving real symmetric generalised eigenvalue problem by standard ScaLAPACK.
  Using Cholesky factor for transformation
  Using 1-stage real ELPA solver
  Solving real symmetric generalised eigenvalue problem by standard ScaLAPACK.
  Using Cholesky factor for transformation
  Using 1-stage real ELPA solver
  Determining occupation numbers for Kohn-Sham eigenstates.
  | Chemical potential (Fermi level) in eV                 : -.92887869E+01
  | Error in electron count due to remaining E_F inaccuracy: 0.00000000E+00
  | Maximum occupation number of highest empty state:  0.00E+00

  Current spin moment of the entire structure :
  | N = N_up - N_down :    0.00
  | S                 :    0.00
  | J                 :    1.00

  Highest occupied state (VBM) at    -10.90861324 eV
  | Occupation number:      1.00000000
  | Spin channel:        2

  Lowest unoccupied state (CBM) at     0.89304366 eV
  | Occupation number:      0.00000000
  | Spin channel:        2

  Overall HOMO-LUMO gap:     11.80165690 eV.

  Total energy components:
  | Sum of eigenvalues            :          -0.80176834 Ha         -21.81722650 eV
  | XC energy correction          :          -0.72558544 Ha         -19.74418443 eV
  | XC potential correction       :           0.93138482 Ha          25.34427048 eV
  | Free-atom electrostatic energy:          -0.25123762 Ha          -6.83652338 eV
  | Hartree energy correction     :          -0.30969186 Ha          -8.42714416 eV
  | van der Waals energy corr.    :           0.00000000 Ha           0.00000000 eV
  | Entropy correction            :           0.00000000 Ha           0.00000000 eV
  | ---------------------------
  | Total energy                  :          -1.15689843 Ha         -31.48080799 eV
  | Total energy, T -> 0          :          -1.15689843 Ha         -31.48080799 eV  <-- do not rely on this value for anything but (periodic) metals
  | Electronic free energy        :          -1.15689843 Ha         -31.48080799 eV

  Derived energy quantities:
  | Kinetic energy                :           1.25034982 Ha          34.02374966 eV
  | Electrostatic energy          :          -1.68166281 Ha         -45.76037321 eV
  | Energy correction for multipole
  | error in Hartree potential    :          -0.00006811 Ha          -0.00185333 eV
  | Sum of eigenvalues per atom                           :         -10.90861325 eV
  | Total energy (T->0) per atom                          :         -15.74040399 eV  <-- do not rely on this value for anything but (periodic) metals
  | Electronic free energy per atom                       :         -15.74040399 eV

  Self-consistency convergence accuracy:
  | Change of charge/spin density : 0.2534E-06 0.1714E-06
  | Change of sum of eigenvalues  : -.1037E-04 eV
  | Change of total energy        : -.3590E-09 eV

  End self-consistency iteration #    26       :  max(cpu_time)    wall_clock(cpu1)
  | Time for this iteration                    :        0.025 s           0.024 s
  | Charge density update                      :        0.006 s           0.005 s
  | Density mixing                             :        0.002 s           0.002 s
  | Hartree multipole update                   :        0.001 s           0.001 s
  | Hartree multipole summation                :        0.004 s           0.005 s
  | Integration                                :        0.009 s           0.009 s
  | Solution of K.-S. eqns.                    :        0.001 s           0.001 s
  | Total energy evaluation                    :        0.000 s           0.000 s
------------------------------------------------------------

------------------------------------------------------------
          Begin self-consistency iteration #   27

  Date     :  20220120, Time     :  152333.667
------------------------------------------------------------
  Evaluating new KS density.
  Integration grid: deviation in total charge (<rho> - N_e) =  -2.886580E-14
  | <rho_up-rho_dn> = N_up-N_dn =     -0.0000; <|rho_up-rho_dn|> =      0.0000
  Pulay mixing of updated and previous charge densities.

  Evaluating partitioned Hartree potential by multipole expansion.
  | Analytical far-field extrapolation by fixed multipoles:
  | Hartree multipole sum: apparent total charge =   0.874048E-06
  Summing up the Hartree potential.
  Time summed over all CPUs for potential: real work        0.031 s, elapsed        0.032 s
  | RMS charge density error from multipole expansion :   0.148457E-02

  Integrating Hamiltonian matrix: batch-based integration.
  Time summed over all CPUs for integration: real work        0.067 s, elapsed        0.073 s

  Updating Kohn-Sham eigenvalues, eigenvectors, occupation numbers, and Fermi level.
  Solving generalized eigenproblem
  Solving real symmetric generalised eigenvalue problem by standard ScaLAPACK.
  Using Cholesky factor for transformation
  Using 1-stage real ELPA solver
  Solving real symmetric generalised eigenvalue problem by standard ScaLAPACK.
  Using Cholesky factor for transformation
  Using 1-stage real ELPA solver
  Determining occupation numbers for Kohn-Sham eigenstates.
  | Chemical potential (Fermi level) in eV                 : -.92887538E+01
  | Error in electron count due to remaining E_F inaccuracy: 0.00000000E+00
  | Maximum occupation number of highest empty state:  0.00E+00

  Current spin moment of the entire structure :
  | N = N_up - N_down :    0.00
  | S                 :    0.00
  | J                 :    1.00

  Highest occupied state (VBM) at    -10.90861342 eV
  | Occupation number:      1.00000000
  | Spin channel:        1

  Lowest unoccupied state (CBM) at     0.89304211 eV
  | Occupation number:      0.00000000
  | Spin channel:        2

  Overall HOMO-LUMO gap:     11.80165554 eV.

  Total energy components:
  | Sum of eigenvalues            :          -0.80176835 Ha         -21.81722690 eV
  | XC energy correction          :          -0.72558544 Ha         -19.74418429 eV
  | XC potential correction       :           0.93138481 Ha          25.34427028 eV
  | Free-atom electrostatic energy:          -0.25123762 Ha          -6.83652338 eV
  | Hartree energy correction     :          -0.30969184 Ha          -8.42714371 eV
  | van der Waals energy corr.    :           0.00000000 Ha           0.00000000 eV
  | Entropy correction            :           0.00000000 Ha           0.00000000 eV
  | ---------------------------
  | Total energy                  :          -1.15689843 Ha         -31.48080799 eV
  | Total energy, T -> 0          :          -1.15689843 Ha         -31.48080799 eV  <-- do not rely on this value for anything but (periodic) metals
  | Electronic free energy        :          -1.15689843 Ha         -31.48080799 eV

  Derived energy quantities:
  | Kinetic energy                :           1.25034982 Ha          34.02374971 eV
  | Electrostatic energy          :          -1.68166281 Ha         -45.76037341 eV
  | Energy correction for multipole
  | error in Hartree potential    :          -0.00006811 Ha          -0.00185333 eV
  | Sum of eigenvalues per atom                           :         -10.90861345 eV
  | Total energy (T->0) per atom                          :         -15.74040399 eV  <-- do not rely on this value for anything but (periodic) metals
  | Electronic free energy per atom                       :         -15.74040399 eV

  Self-consistency convergence accuracy:
  | Change of charge/spin density : 0.2101E-07 0.1529E-07
  | Change of sum of eigenvalues  : -.3987E-06 eV
  | Change of total energy        : -.9287E-11 eV

  Writing Kohn-Sham eigenvalues.

  Spin-up eigenvalues:

  State    Occupation    Eigenvalue [Ha]    Eigenvalue [eV]
      1       1.00000          -0.400884          -10.90861
      2       0.00000           0.032819            0.89304
      3       0.00000           0.045912            1.24933
      4       0.00000           0.183952            5.00559
      5       0.00000           0.326659            8.88884
      6       0.00000           0.326659            8.88884
      7       0.00000           0.359932            9.79424
      8       0.00000           0.605850           16.48603
      9       0.00000           0.787725           21.43510
     10       0.00000           0.787725           21.43510
     11       0.00000           0.789662           21.48780

  Spin-down eigenvalues:

  State    Occupation    Eigenvalue [Ha]    Eigenvalue [eV]
      1       1.00000          -0.400884          -10.90861
      2       0.00000           0.032819            0.89304
      3       0.00000           0.045912            1.24933
      4       0.00000           0.183952            5.00559
      5       0.00000           0.326659            8.88884
      6       0.00000           0.326659            8.88884
      7       0.00000           0.359932            9.79423
      8       0.00000           0.605850           16.48603
      9       0.00000           0.787725           21.43510
     10       0.00000           0.787725           21.43510
     11       0.00000           0.789662           21.48780

  Current spin moment of the entire structure :
  | N = N_up - N_down :    0.00
  | S                 :    0.00
  | J                 :    1.00

  Highest occupied state (VBM) at    -10.90861342 eV
  | Occupation number:      1.00000000
  | Spin channel:        1

  Lowest unoccupied state (CBM) at     0.89304211 eV
  | Occupation number:      0.00000000
  | Spin channel:        2

  Overall HOMO-LUMO gap:     11.80165554 eV.

  Self-consistency cycle converged.

  End self-consistency iteration #    27       :  max(cpu_time)    wall_clock(cpu1)
  | Time for this iteration                    :        0.025 s           0.025 s
  | Charge density update                      :        0.006 s           0.005 s
  | Density mixing                             :        0.002 s           0.002 s
  | Hartree multipole update                   :        0.001 s           0.001 s
  | Hartree multipole summation                :        0.004 s           0.004 s
  | Integration                                :        0.009 s           0.010 s
  | Solution of K.-S. eqns.                    :        0.001 s           0.001 s
  | Total energy evaluation                    :        0.000 s           0.001 s
------------------------------------------------------------
  Obtaining max. number of non-zero basis functions in each batch .
  Evaluating KS electron density on previously omitted grid points.
  Evaluating non-empirical van der Waals correction (Tkatchenko/Scheffler 2009).
  Performing Hirshfeld analysis of fragment charges and moments.
  ----------------------------------------------------------------------
  | Atom     1: H
  |   Hirshfeld charge        :     -0.00000049
  |   Free atom volume        :     10.31539447
  |   Hirshfeld volume        :      4.80347233
  |   Hirshfeld spin moment   :     -0.00000001
  |   Hirshfeld dipole vector :      0.00000000       0.00000000      -0.07495571
  |   Hirshfeld dipole moment :      0.07495571
  |   Hirshfeld second moments:      0.13565529      -0.00000000      -0.00000000
  |                                 -0.00000000       0.13565529      -0.00000000
  |                                 -0.00000000      -0.00000000       0.13347974
  ----------------------------------------------------------------------
  | Atom     2: H
  |   Hirshfeld charge        :     -0.00000049
  |   Free atom volume        :     10.31539447
  |   Hirshfeld volume        :      4.80347233
  |   Hirshfeld spin moment   :     -0.00000001
  |   Hirshfeld dipole vector :      0.00000000       0.00000000       0.07495571
  |   Hirshfeld dipole moment :      0.07495571
  |   Hirshfeld second moments:      0.13565529      -0.00000000      -0.00000000
  |                                 -0.00000000       0.13565529      -0.00000000
  |                                 -0.00000000      -0.00000000       0.13347974
  ----------------------------------------------------------------------


  Total energy components:
  | Sum of eigenvalues            :          -0.80176835 Ha         -21.81722690 eV
  | XC energy correction          :          -0.72558544 Ha         -19.74418429 eV
  | XC potential correction       :           0.93138481 Ha          25.34427028 eV
  | Free-atom electrostatic energy:          -0.25123762 Ha          -6.83652338 eV
  | Hartree energy correction     :          -0.30969184 Ha          -8.42714371 eV
  | van der Waals energy corr.    :          -0.00000020 Ha          -0.00000534 eV
  | Entropy correction            :           0.00000000 Ha           0.00000000 eV
  | ---------------------------
  | Total energy                  :          -1.15689863 Ha         -31.48081333 eV
  | Total energy, T -> 0          :          -1.15689863 Ha         -31.48081333 eV  <-- do not rely on this value for anything but (periodic) metals
  | Electronic free energy        :          -1.15689863 Ha         -31.48081333 eV

  Derived energy quantities:
  | Kinetic energy                :           1.25034982 Ha          34.02374971 eV
  | Electrostatic energy          :          -1.68166281 Ha         -45.76037341 eV
  | Energy correction for multipole
  | error in Hartree potential    :          -0.00006811 Ha          -0.00185333 eV
  | Sum of eigenvalues per atom                           :         -10.90861345 eV
  | Total energy (T->0) per atom                          :         -15.74040667 eV  <-- do not rely on this value for anything but (periodic) metals
  | Electronic free energy per atom                       :         -15.74040667 eV
  Timings for VdW correction (Tkatchenko-Scheffler 2009 or later):
  | CPU time:        0.002 s, Wall clock time:        0.003 s.

  Energy and forces in a compact form:
  | Total energy uncorrected      :         -0.314808133310326E+02 eV
  | Total energy corrected        :         -0.314808133310326E+02 eV  <-- do not rely on this value for anything but (periodic) metals
  | Electronic free energy        :         -0.314808133310326E+02 eV

  ------------------------------------ 
  Start decomposition of the XC Energy 
  ------------------------------------ 
  Hartree-Fock part   :          0.000000000 Ha              0.000000000 eV
  ------------------------------------ 
  X Energy            :         -0.682222547 Ha            -18.564220035 eV
  C Energy GGA        :         -0.043362889 Ha             -1.179964251 eV
  Total XC Energy     :         -0.725585436 Ha            -19.744184286 eV
  LDA X and C from self-consistent density 
  X Energy LDA        :         -0.597054563 Ha            -16.246681269 eV
  C Energy LDA        :         -0.096531105 Ha             -2.626745012 eV
  ------------------------------------ 
  End decomposition of the XC Energy 
  ------------------------------------ 

------------------------------------------------------------------------------
  Final output of selected total energy values:

  The following output summarizes some interesting total energy values
  at the end of a run (AFTER all relaxation, molecular dynamics, etc.).

  | Total energy of the DFT / Hartree-Fock s.c.f. calculation      :            -31.480813331 eV
  | Final zero-broadening corrected energy (caution - metals only) :            -31.480813331 eV
  | For reference only, the value of 1 Hartree used in FHI-aims is :             27.211384500 eV

  Before relying on these values, please be sure to understand exactly which
  total energy value is referred to by a given number. Different objects may
  all carry the same name 'total energy'. Definitions:

  Total energy of the DFT / Hartree-Fock s.c.f. calculation:
  | Note that this energy does not include ANY quantities calculated after the
  | s.c.f. cycle, in particular not ANY RPA, MP2, etc. many-body perturbation terms.

  Final zero-broadening corrected energy:
  | For metallic systems only, a broadening of the occupation numbers at the Fermi
  | level can be extrapolated back to zero broadening by an electron-gas inspired
  | formula. For all systems that are not real metals, this value can be
  | meaningless and should be avoided.

------------------------------------------------------------------------------

------------------------------------------------------------
          Leaving FHI-aims.
          Date     :  20220120, Time     :  152333.704

          Computational steps:
          | Number of self-consistency cycles          :           27

          Detailed time accounting                     :  max(cpu_time)    wall_clock(cpu1)
          | Total time                                 :        0.822 s           0.939 s
          | Preparation time                           :        0.069 s           0.070 s
          | Grid partitioning                          :        0.007 s           0.010 s
          | Preloading free-atom quantities on grid    :        0.003 s           0.002 s
          | Free-atom superposition energy             :        0.002 s           0.003 s
          | Total time for integrations                :        0.253 s           0.254 s
          | Total time for solution of K.-S. equations :        0.041 s           0.043 s
          | Total time for density update              :        0.179 s           0.144 s
          | Total time for mixing                      :        0.042 s           0.045 s
          | Total time for Hartree multipole update    :        0.033 s           0.037 s
          | Total time for Hartree multipole sum       :        0.112 s           0.113 s
          | Total time for total energy evaluation     :        0.004 s           0.016 s
          | Total time for scaled ZORA corrections     :        0.000 s           0.000 s
          | Total time for vdW correction              :        0.002 s           0.003 s

          Have a nice day.
------------------------------------------------------------
