  MPI-parallelism will be employed.
------------------------------------------------------------
          Invoking FHI-aims ...
          Version 052014
          Git rev. (modified): 096c982 Merge branch master of fhiaims:/pub/localo[...]
          Compiled on 2016/12/16 at 15:22:01 on host login02.hpc.iitd.ac.in.

          When using FHI-aims, please cite the following reference:

          Volker Blum, Ralf Gehrke, Felix Hanke, Paula Havu,
          Ville Havu, Xinguo Ren, Karsten Reuter, and Matthias Scheffler,
          'Ab Initio Molecular Simulations with Numeric Atom-Centered Orbitals: FHI-aims',
          Computer Physics Communications 180, 2175-2196 (2009)

          For any questions about FHI-aims, please visit the aimsclub website
          with its forums and wiki. Contributions to both the forums and the
          wiki are warmly encouraged - they are for you, and everyone is welcome there.

------------------------------------------------------------

  Date     :  20220120, Time     :  152846.140
  Time zero on CPU 1             :   0.110600000000000E-01  s.
  Internal wall clock time zero  :           411924526.140  s.

  Using        8 parallel tasks.
  Task        0 on host csky038 reporting.
  Task        1 on host csky038 reporting.
  Task        2 on host csky038 reporting.
  Task        3 on host csky038 reporting.
  Task        4 on host csky038 reporting.
  Task        5 on host csky038 reporting.
  Task        6 on host csky038 reporting.
  Task        7 on host csky038 reporting.

  Performing system and environment tests:
  | Environment variable OMP_NUM_THREADS correctly set to 1.
  | Stacksize not measured: no C compiler
  | Checking for scalapack...
  | Testing pdtran()...
  | All pdtran() tests passed.

  Obtaining array dimensions for all initial allocations:
  
  -----------------------------------------------------------------------
  Parsing control.in (first pass over file, find array dimensions only).
  The contents of control.in will be repeated verbatim below
  unless switched off by setting 'verbatim_writeout .false.' .
  in the first line of control.in .
  -----------------------------------------------------------------------
  
    xc               pbe
    spin             collinear
    default_initial_moment hund
    relativistic     atomic_zora scalar 1e-9
    occupation_type  gaussian 0.001
    charge        0
    vdw_correction_hirshfeld
    KS_method        scalapack_fast
    mixer            pulay
    charge_mix_param  0.4
    spin_mix_param    0.6
    sc_accuracy_rho  1E-4
    sc_accuracy_eev  1E-5
    sc_accuracy_etot 1E-5
    sc_iter_limit    100
    empty_states     10
  ################################################################################
  #
  #  FHI-aims code project
  # Volker Blum, Fritz Haber Institute Berlin, 2009
  #
  #  Suggested "tight" defaults for H atom (to be pasted into control.in file)
  #
  ################################################################################
    species        H
  #     global species definitions
      nucleus             1
      mass                1.00794
  #
      l_hartree           6
  #
      cut_pot             4.0  2.0  1.0
      basis_dep_cutoff    1e-4
  #
      radial_base         24 7.0
      radial_multiplier   2
      angular_grids       specified
        division   0.1930   50
        division   0.3175  110
        division   0.4293  194
        division   0.5066  302
        division   0.5626  434
  #      division   0.5922  590
  #      division   0.6227  974
  #      division   0.6868 1202
  #      outer_grid  770
        outer_grid  434
  ################################################################################
  #
  #  Definition of "minimal" basis
  #
  ################################################################################
  #     valence basis states
      valence      1  s   1.
  #     ion occupancy
      ion_occ      1  s   0.5
  ################################################################################
  #
  #  Suggested additional basis functions. For production calculations,
  #  uncomment them one after another (the most important basis functions are
  #  listed first).
  #
  #  Basis constructed for dimers: 0.5 A, 0.7 A, 1.0 A, 1.5 A, 2.5 A
  #
  ################################################################################
  #  "First tier" - improvements: -1014.90 meV to -62.69 meV
       hydro 2 s 2.1
       hydro 2 p 3.5
  #  "Second tier" - improvements: -12.89 meV to -1.83 meV
       hydro 1 s 0.85
       hydro 2 p 3.7
       hydro 2 s 1.2
       hydro 3 d 7
  #  "Third tier" - improvements: -0.25 meV to -0.12 meV
  #     hydro 4 f 11.2
  #     hydro 3 p 4.8
  #     hydro 4 d 9
  #     hydro 3 s 3.2
  ################################################################################
  #
  # For methods that use the localized form of the "resolution of identity" for
  # the two-electron Coulomb operator (RI_method LVL), particularly Hartree-Fock and
  # hybrid density functional calculations, the highest accuracy can be obtained by
  # uncommenting the line beginning with "for_aux"  below, thus adding an extra g radial
  # function to the construction of the product basis set for the expansion.
  # See Ref. New J. Phys. 17, 093020 (2015) for more information, particularly Figs. 1 and 6.
  #
  ################################################################################
  #
  # for_aux hydro 5 g 6.0
  
  -----------------------------------------------------------------------
  Completed first pass over input file control.in .
  -----------------------------------------------------------------------
  
  
  -----------------------------------------------------------------------
  Parsing geometry.in (first pass over file, find array dimensions only).
  The contents of geometry.in will be repeated verbatim below
  unless switched off by setting 'verbatim_writeout .false.' .
  in the first line of geometry.in .
  -----------------------------------------------------------------------
  
  atom 0 0 0 H
  atom 0 0 0.55 H
  
  -----------------------------------------------------------------------
  Completed first pass over input file geometry.in .
  -----------------------------------------------------------------------
  

  Basic array size parameters:
  | Number of species                 :        1
  | Number of atoms                   :        2
  | Max. basis fn. angular momentum   :        2
  | Max. atomic/ionic basis occupied n:        1
  | Max. number of basis fn. types    :        2
  | Max. radial fns per species/type  :        6
  | Max. logarithmic grid size        :     1131
  | Max. radial integration grid size :       49
  | Max. angular integration grid size:      434
  | Max. angular grid division number :        8
  | Radial grid for Hartree potential :     1131
  | Number of spin channels           :        2

------------------------------------------------------------
          Reading file control.in.
------------------------------------------------------------
  XC: Using PBE gradient-corrected functionals.
  Spin treatment: Spin density functional theory - collinear spins.
  Initial spin moment per atom set according to Hund's rules.
  Scalar relativistic treatment of kinetic energy: on-site free-atom approximation to ZORA.
  Occupation type: Gaussian broadening, width =   0.100000E-02 eV.
  Charge =   0.000000E+00: Neutral system requested explicitly.
  Using non-empirical van der Waals correction (Hirshfeld partitioning):
  Kohn-Sham eigenvalues and eigenfunctions calculated by the ELPA eigensolver library.
  Using pulay charge density mixing.
  Charge density mixing - mixing parameter:     0.4000
  Spin density mixing - mixing parameter:     0.6000
  Convergence accuracy of self-consistent charge density: 0.1000E-03
  Convergence accuracy of sum of eigenvalues: 0.1000E-04
  Convergence accuracy of total energy: 0.1000E-04
  Maximum number of s.-c. iterations  :   100
  Number of empty states per atom:       10
 
  Reading configuration options for species H                   .
  | Found nuclear charge :   1.0000
  | Found atomic mass :    1.00794000000000      amu
  | Found l_max for Hartree potential  :   6
  | Found cutoff potl. onset [A], width [A], scale factor :    4.00000    2.00000    1.00000
  | Threshold for basis-dependent cutoff potential is   0.100000E-03
  | Found data for basic radial integration grid :    24 points, outermost radius =    7.000 A
  | Found multiplier for basic radial grid :   2
  | Found angular grid specification: user-specified.
  | Specified grid contains     6 separate shells.
  | Check grid settings after all constraints further below.
  | Found free-atom valence shell :  1 s   1.000
  | No ionic wave fns used. Skipping ion_occ.
  | Found hydrogenic basis function :  2 s   2.100
  | Found hydrogenic basis function :  2 p   3.500
  | Found hydrogenic basis function :  1 s   0.850
  | Found hydrogenic basis function :  2 p   3.700
  | Found hydrogenic basis function :  2 s   1.200
  | Found hydrogenic basis function :  3 d   7.000
  Species H                   : Missing cutoff potential type.
  Defaulting to exp(1/x)/(1-x)^2 type cutoff potential.
  Species H : No 'logarithmic' tag. Using default grid for free atom:
  | Default logarithmic grid data [bohr] : 0.1000E-03 0.1000E+03 0.1012E+01
  Species H : On-site basis accuracy parameter (for Gram-Schmidt orthonormalisation) not specified.
  Using default value basis_acc =  0.1000000E-03.
  Species H                   : Using default innermost maximum threshold i_radial=  2 for radial functions.
  Species H                   : Default cutoff onset for free atom density etc. : 0.40000000E+01 AA.
  Species H                   : Basic radial grid will be enhanced according to radial_multiplier =   2, to contain    49 grid points.
 
  Finished reading input file 'control.in'. Consistency checks are next.
 
  Target number of points in a grid batch is not set. Defaulting to  100
  Method for grid partitioning is not set. Defaulting to parallel hash+maxmin partitioning.
  Batch size limit is not set. Defaulting to    200
  By default, will store active basis functions for each batch.
  If in need of memory, prune_basis_once .false. can be used to disable this option.
  communication_type for Hartree potential was not specified.
  Defaulting to calc_hartree .
  Pulay mixer: Number of relevant iterations not set.
  Defaulting to    8 iterations.
  Pulay mixer: Number of initial linear mixing iterations not set.
  Defaulting to    0 iterations.
  Work space size for distributed Hartree potential not set.
  Defaulting to   0.200000E+03 MB.
  Algorithm-dependent basis array size parameters:
  | n_max_pulay                         :        8
  Calculation of forces was not defined in control.in. No forces will be calculated.
  Geometry relaxation not requested: no relaxation will be performed.
  No accuracy limit for integral partition fn. given. Defaulting to 0.1000E-14.
  No threshold value for u(r) in integrations given. Defaulting to 0.1000E-05.
  No accuracy for occupation numbers given. Defaulting to 0.1000E-07.
  No threshold value for occupation numbers given. Defaulting to 0.0000E+00.
  No accuracy for fermi level given. Defaulting to 0.1000E-19.
  Maximum # of iterations to find E_F not set. Defaulting to  200.
  Will not use alltoall communication since running on < 1024 CPUs.
  Threshold for basis singularities not set.
  Default threshold for basis singularities: 0.1000E-04
  partition_type (choice of integration weights) for integrals was not specified.
  | Using a version of the partition function of Stratmann and coworkers ('stratmann_smoother').
  | At each grid point, the set of atoms used to build the partition table is smoothly restricted to
  | only those atoms whose free-atom density would be non-zero at that grid point.
  Partitioning for Hartree potential was not defined. Using partition_type for integrals.
  | Adjusted default value of keyword multip_moments_threshold to:       0.10000000E-11
  | This value may affect high angular momentum components of the Hartree potential in periodic systems.
  No q(lm)/r^(l+1) cutoff set for long-range Hartree potential.
  | Using default value of  0.100000E-09 .
  | Verify using the multipole_threshold keyword.
  Defaulting to new monopole extrapolation.
  Density update method: automatic selection selected.
------------------------------------------------------------


------------------------------------------------------------
          Reading geometry description geometry.in.
------------------------------------------------------------
  Input structure read successfully.
  The structure contains        2 atoms,  and a total of          2.000 electrons.

  Input geometry:
  | No unit cell requested.
  | Atomic structure:
  |       Atom                x [A]            y [A]            z [A]
  |    1: Species H              0.000000         0.000000         0.000000
  |    2: Species H              0.000000         0.000000         0.550000
  |

  | The smallest distance between any two atoms is         0.55000000 AA.
  |
  | The first atom of this pair is atom number                      1 .
  | The second atom of this pair is atom number                     2 .

  Initial moments and charges:
  |  Atom   Moment         Charge        Species
  |     1  (Hund's rule)   0.000000E+00   H
  |     2  (Hund's rule)   0.000000E+00   H

  Structure-dependent array size parameters: 
  | Number of distinct atom types in initial rho :        1
  | Maximum number of distinct radial functions  :        7
  | Maximum number of basis functions            :       30
  | Number of Kohn-Sham states (occupied + empty):       11
------------------------------------------------------------

------------------------------------------------------------
          Preparing all fixed parts of the calculation.
------------------------------------------------------------
  Determining machine precision:
    2.225073858507201E-308
  Setting up grids for atomic and cluster calculations.

  Creating wave function, potential, and density for free atoms.

  Species: H

  List of occupied orbitals and eigenvalues:
    n    l              occ      energy [Ha]    energy [eV]
    1    0           1.0000        -0.238386        -6.4868

  Spin-polarized or charged system:
  Charge density initialized according to selected moments and charges.

  Creating spin-polarized density from free atoms.

  Species: H
  Charge:   0.000000
  applying Hund's rules ...

  List of occupied orbitals and eigenvalues:
    n    l      energy [Ha]    energy [eV]    occupation
  Spin-up
    1    0        -0.278991        -7.5917     1.00000000
  Spin-down
    1    0         0.090850         2.4721     0.00000000

  Creating fixed part of basis set: Ionic, confined, hydrogenic.
 
  H                    hydrogenic:
 
  List of hydrogenic basis orbitals: 
    n    l      effective z      eigenvalue [eV]  inner max. [A]     outer max. [A]     outer radius [A]   
    2    0         2.100000       -14.9965           0.193243           1.317208           5.373006
    2    1         3.500000       -41.6672           0.602369           0.602369           4.056063
    1    0         0.850000        -9.8292           0.624871           0.624871           5.373006
    2    1         3.700000       -46.5653           0.573622           0.573622           3.910002
    2    0         1.200000        -4.5995           0.334980           2.228188           5.505995
    3    2         7.000000       -74.0753           0.680699           0.680699           3.769201
 

  Adding cutoff potential to free-atom effective potential.
  Creating atomic-like basis functions for current effective potential.

  Species H                   :

  List of atomic basis orbitals and eigenvalues:
    n    l      energy [Ha]    energy [eV]    outer radius [A]
    1    0        -0.238386        -6.4868       5.373006

  Assembling full basis from fixed parts.
  | Species H :   atomic orbital   1 s accepted.
  | Species H :    hydro orbital   2 s accepted.
  | Species H :    hydro orbital   1 s accepted.
  | Species H :    hydro orbital   2 s accepted.
  | Species H :    hydro orbital   2 p accepted.
  | Species H :    hydro orbital   2 p accepted.
  | Species H :    hydro orbital   3 d accepted.
 
  Basis size parameters after reduction:
  | Total number of radial functions:        7
  | Total number of basis functions :       30
 
  Testing on-site integration grid accuracy.
  |  Species  Function  <phi|h_atom|phi> (log., in eV)  <phi|h_atom|phi> (rad., in eV)
           1        1                 -6.4870767962                 -6.4871688290
           1        2                 13.5032046589                 13.5028982997
           1        3                 32.8195184817                 32.8119941656
           1        4                 33.8513856511                 33.7670005767 ***
           1        5                 28.8544614965                 28.8544615203
           1        6                 59.6326952547                 59.6327656460
           1        7                 60.2719308513                 60.2719305949
 * Note: Onsite integrals marked "***" above are less accurate than
 * onsite_accuracy_threshold =    0.03000 eV. Usually, this is harmless.
 * When in doubt, tighten the "radial" and/or "radial_multiplier" flags to check.

  Preparing densities etc. for the partition functions (integrals / Hartree potential).

  Preparations completed.
  max(cpu_time)          :      0.070 s.
  Wall clock time (cpu1) :      0.070 s.
------------------------------------------------------------

------------------------------------------------------------
          Begin self-consistency loop: Initialization.

          Date     :  20220120, Time     :  152846.290
------------------------------------------------------------

  Initializing index lists of integration centers etc. from given atomic structure:
  | Number of centers in hartree potential         :         2
  | Number of centers in hartree multipole         :         2
  | Number of centers in electron density summation:         2
  | Number of centers in basis integrals           :         2
  | Number of centers in integrals                 :         2
  Using modified Scalapack Eigenvalue solver (ELPA)
  * Using 8 tasks for Scalapack Eigenvalue solver.
  Detailed listing of tasks and assigned k-points:
  (for non-periodic systems, the "k-point" denotes an internal label only)
   Task     0 k-point     1 on csky038
   Task     1 k-point     1 on csky038
   Task     2 k-point     1 on csky038
   Task     3 k-point     1 on csky038
   Task     4 k-point     1 on csky038
   Task     5 k-point     1 on csky038
   Task     6 k-point     1 on csky038
   Task     7 k-point     1 on csky038
  Tasks:     8 split into      4 X      2 BLACS grid
  Calculating blocksize based on n_basis =           30 max_nprow =            4 max_npcol =            2
  Scalapack blocksize set to:            4
  Required Scalapack workspace - INTEGER:            1 REAL:             1
  Partitioning the integration grid into batches with parallel hashing+maxmin method.
  | Number of batches:      446
  | Maximal batch size:     197
  | Minimal batch size:      49
  | Average batch size:      64.798
  | Standard deviation of batch sizes:      18.051

  Integration load balanced across     8 MPI tasks.
  Work distribution over tasks is as follows:
  Task     0 has       3678 integration points.
  Task     1 has       3668 integration points.
  Task     2 has       3583 integration points.
  Task     3 has       3599 integration points.
  Task     4 has       3583 integration points.
  Task     5 has       3589 integration points.
  Task     6 has       3624 integration points.
  Task     7 has       3576 integration points.
  Initializing partition tables, free-atom densities, potentials, etc. across the integration grid (initialize_grid_storage).
  | initialize_grid_storage: Actual outermost partition radius vs. multipole_radius_free
  | (-- VB: in principle, multipole_radius_free should be larger, hence this output)
  | Species        1: outer_partition_radius =              6.000000000000000 AA, multipole_radius_free =              6.071692442739658 AA.
  | Original list of interatomic distances with           2 x          2 entries is created.
  | Net number of integration points:    28900
  | of which are non-zero points    :    26110
  Obtaining max. number of non-zero basis functions in each batch (get_n_compute_maxes).
  | Maximal number of non-zero basis functions:       30 in task     0
  | Maximal number of non-zero basis functions:       30 in task     1
  | Maximal number of non-zero basis functions:       30 in task     2
  | Maximal number of non-zero basis functions:       30 in task     3
  | Maximal number of non-zero basis functions:       30 in task     4
  | Maximal number of non-zero basis functions:       30 in task     5
  | Maximal number of non-zero basis functions:       30 in task     6
  | Maximal number of non-zero basis functions:       30 in task     7
  Selecting the method for density update.
  Loop over occupied states selected for charge density update.
  Integrating Hamiltonian matrix: batch-based integration.
  Time summed over all CPUs for integration: real work        0.076 s, elapsed        0.079 s
  Integrating overlap matrix.
  Time summed over all CPUs for integration: real work        0.019 s, elapsed        0.025 s
  Deallocating overlap matrix.

  Updating Kohn-Sham eigenvalues, eigenvectors, occupation numbers, and Fermi level.
  Solving generalized eigenproblem
  Solving real symmetric generalised eigenvalue problem by standard ScaLAPACK.
  Transforming overlap matrix with ScaLAPACK and checking for singularities.
  : Overlap matrix is nonsingular, using Cholesky decomposition
  | Lowest eigenvalue:  0.915806E-04
  Factoring overlap matrix with Cholesky decomposition
  Using Cholesky factor for transformation
  Using 1-stage real ELPA solver
  Solving real symmetric generalised eigenvalue problem by standard ScaLAPACK.
  Using Cholesky factor for transformation
  Using 1-stage real ELPA solver
  Determining occupation numbers for Kohn-Sham eigenstates.
  | Chemical potential (Fermi level) in eV                 : -.79387715E-01
  | Error in electron count due to remaining E_F inaccuracy: 0.00000000E+00
  | Maximum occupation number of highest empty state:  0.00E+00

  Writing Kohn-Sham eigenvalues.

  Spin-up eigenvalues:

  State    Occupation    Eigenvalue [Ha]    Eigenvalue [eV]
      1       1.00000          -0.696537          -18.95374
      2       1.00000          -0.021219           -0.57741
      3       0.00000           0.000852            0.02319
      4       0.00000           0.127831            3.47845
      5       0.00000           0.204625            5.56812
      6       0.00000           0.204625            5.56812
      7       0.00000           0.275582            7.49897
      8       0.00000           0.516541           14.05580
      9       0.00000           0.690049           18.77718
     10       0.00000           0.690049           18.77718
     11       0.00000           0.701756           19.09574

  Spin-down eigenvalues:

  State    Occupation    Eigenvalue [Ha]    Eigenvalue [eV]
      1       0.00000           0.099170            2.69856
      2       0.00000           0.114098            3.10475
      3       0.00000           0.502740           13.68026
      4       0.00000           0.529628           14.41192
      5       0.00000           1.162550           31.63458
      6       0.00000           1.177421           32.03924
      7       0.00000           1.177421           32.03924
      8       0.00000           1.483757           40.37509
      9       0.00000           1.483757           40.37509
     10       0.00000           1.566925           42.63820
     11       0.00000           1.624173           44.19599

  Current spin moment of the entire structure :
  | N = N_up - N_down :    2.00
  | S                 :    1.00
  | J                 :    3.00

  Highest occupied state (VBM) at     -0.57740912 eV
  | Occupation number:      1.00000000
  | Spin channel:        1

  Lowest unoccupied state (CBM) at     0.02318851 eV
  | Occupation number:      0.00000000
  | Spin channel:        1

  Overall HOMO-LUMO gap:      0.60059763 eV.
  Calculating total energy contributions from superposition of free atom densities.

  Total energy components:
  | Sum of eigenvalues            :          -0.71775656 Ha         -19.53114973 eV
  | XC energy correction          :          -0.70693769 Ha         -19.23675321 eV
  | XC potential correction       :           0.91268210 Ha          24.83534357 eV
  | Free-atom electrostatic energy:          -0.13422188 Ha          -3.65236315 eV
  | Hartree energy correction     :           0.00000000 Ha           0.00000000 eV
  | van der Waals energy corr.    :           0.00000000 Ha           0.00000000 eV
  | Entropy correction            :           0.00000000 Ha           0.00000000 eV
  | ---------------------------
  | Total energy                  :          -0.64623402 Ha         -17.58492252 eV
  | Total energy, T -> 0          :          -0.64623402 Ha         -17.58492252 eV  <-- do not rely on this value for anything but (periodic) metals
  | Electronic free energy        :          -0.64623402 Ha         -17.58492252 eV

  Derived energy quantities:
  | Kinetic energy                :           1.26609807 Ha          34.45228133 eV
  | Electrostatic energy          :          -1.20539441 Ha         -32.80045065 eV
  | Energy correction for multipole
  | error in Hartree potential    :           0.00000000 Ha           0.00000000 eV
  | Sum of eigenvalues per atom                           :          -9.76557487 eV
  | Total energy (T->0) per atom                          :          -8.79246126 eV  <-- do not rely on this value for anything but (periodic) metals
  | Electronic free energy per atom                       :          -8.79246126 eV
  Initialize hartree_potential_storage
  Max. number of atoms included in rho_multipole:            2

  End scf initialization - timings             :  max(cpu_time)    wall_clock(cpu1)
  | Time for scf. initialization               :        0.037 s           0.037 s
  | Boundary condition initialization          :        0.000 s           0.000 s
  | Integration                                :        0.013 s           0.014 s
  | Solution of K.-S. eqns.                    :        0.007 s           0.007 s
  | Grid partitioning                          :        0.006 s           0.007 s
  | Preloading free-atom quantities on grid    :        0.003 s           0.003 s
  | Free-atom superposition energy             :        0.002 s           0.002 s
  | Total energy evaluation                    :        0.000 s           0.001 s
------------------------------------------------------------

------------------------------------------------------------
          Begin self-consistency iteration #    1

  Date     :  20220120, Time     :  152846.327
------------------------------------------------------------
  Evaluating new KS density.
  Integration grid: deviation in total charge (<rho> - N_e) =   2.965028E-07
  | <rho_up-rho_dn> = N_up-N_dn =      2.0000; <|rho_up-rho_dn|> =      2.1891
  Pulay mixing of updated and previous charge densities.

  Evaluating partitioned Hartree potential by multipole expansion.
  | Analytical far-field extrapolation by fixed multipoles:
  | Hartree multipole sum: apparent total charge =  -0.108688E-04
  Summing up the Hartree potential.
  Time summed over all CPUs for potential: real work        0.031 s, elapsed        0.032 s
  | RMS charge density error from multipole expansion :   0.837701E-03

  Integrating Hamiltonian matrix: batch-based integration.
  Time summed over all CPUs for integration: real work        0.061 s, elapsed        0.065 s

  Updating Kohn-Sham eigenvalues, eigenvectors, occupation numbers, and Fermi level.
  Solving generalized eigenproblem
  Solving real symmetric generalised eigenvalue problem by standard ScaLAPACK.
  Using Cholesky factor for transformation
  Using 1-stage real ELPA solver
  Solving real symmetric generalised eigenvalue problem by standard ScaLAPACK.
  Using Cholesky factor for transformation
  Using 1-stage real ELPA solver
  Determining occupation numbers for Kohn-Sham eigenstates.
  | Chemical potential (Fermi level) in eV                 : -.71438742E+01
  | Error in electron count due to remaining E_F inaccuracy: 0.00000000E+00
  | Maximum occupation number of highest empty state:  0.00E+00

  Writing Kohn-Sham eigenvalues.

  Spin-up eigenvalues:

  State    Occupation    Eigenvalue [Ha]    Eigenvalue [eV]
      1       1.00000          -0.561773          -15.28663
      2       0.00000           0.062759            1.70776
      3       0.00000           0.063395            1.72507
      4       0.00000           0.179451            4.88311
      5       0.00000           0.220662            6.00451
      6       0.00000           0.220662            6.00451
      7       0.00000           0.338924            9.22259
      8       0.00000           0.583289           15.87209
      9       0.00000           0.745041           20.27360
     10       0.00000           0.745041           20.27360
     11       0.00000           0.809730           22.03388

  Spin-down eigenvalues:

  State    Occupation    Eigenvalue [Ha]    Eigenvalue [eV]
      1       1.00000          -0.351033           -9.55209
      2       0.00000           0.079839            2.17252
      3       0.00000           0.088623            2.41156
      4       0.00000           0.246323            6.70280
      5       0.00000           0.330879            9.00368
      6       0.00000           0.330879            9.00368
      7       0.00000           0.394764           10.74206
      8       0.00000           0.697987           18.99320
      9       0.00000           0.830197           22.59082
     10       0.00000           0.830197           22.59082
     11       0.00000           0.881624           23.99021

  Current spin moment of the entire structure :
  | N = N_up - N_down :    0.00
  | S                 :    0.00
  | J                 :    1.00

  Highest occupied state (VBM) at     -9.55209095 eV
  | Occupation number:      1.00000000
  | Spin channel:        2

  Lowest unoccupied state (CBM) at     1.70775510 eV
  | Occupation number:      0.00000000
  | Spin channel:        1

  Overall HOMO-LUMO gap:     11.25984605 eV.

  Total energy components:
  | Sum of eigenvalues            :          -0.91280637 Ha         -24.83872522 eV
  | XC energy correction          :          -0.47349244 Ha         -12.88438476 eV
  | XC potential correction       :           0.60847053 Ha          16.55732541 eV
  | Free-atom electrostatic energy:          -0.13422188 Ha          -3.65236315 eV
  | Hartree energy correction     :           0.04419935 Ha           1.20272564 eV
  | van der Waals energy corr.    :           0.00000000 Ha           0.00000000 eV
  | Entropy correction            :           0.00000000 Ha           0.00000000 eV
  | ---------------------------
  | Total energy                  :          -0.86785081 Ha         -23.61542208 eV
  | Total energy, T -> 0          :          -0.86785081 Ha         -23.61542208 eV  <-- do not rely on this value for anything but (periodic) metals
  | Electronic free energy        :          -0.86785081 Ha         -23.61542208 eV

  Derived energy quantities:
  | Kinetic energy                :           0.87072134 Ha          23.69353330 eV
  | Electrostatic energy          :          -1.26507972 Ha         -34.42457062 eV
  | Energy correction for multipole
  | error in Hartree potential    :          -0.00012513 Ha          -0.00340487 eV
  | Sum of eigenvalues per atom                           :         -12.41936261 eV
  | Total energy (T->0) per atom                          :         -11.80771104 eV  <-- do not rely on this value for anything but (periodic) metals
  | Electronic free energy per atom                       :         -11.80771104 eV

  Self-consistency convergence accuracy:
  | Change of charge/spin density : 0.7683E-01 0.7683E-01
  | Change of sum of eigenvalues  : -.5308E+01 eV
  | Change of total energy        : -.6030E+01 eV

  End self-consistency iteration #     1       :  max(cpu_time)    wall_clock(cpu1)
  | Time for this iteration                    :        0.024 s           0.024 s
  | Charge density update                      :        0.006 s           0.006 s
  | Density mixing                             :        0.001 s           0.000 s
  | Hartree multipole update                   :        0.001 s           0.002 s
  | Hartree multipole summation                :        0.005 s           0.005 s
  | Integration                                :        0.008 s           0.008 s
  | Solution of K.-S. eqns.                    :        0.001 s           0.001 s
  | Total energy evaluation                    :        0.000 s           0.001 s
------------------------------------------------------------

------------------------------------------------------------
          Begin self-consistency iteration #    2

  Date     :  20220120, Time     :  152846.353
------------------------------------------------------------
  Evaluating new KS density.
  Integration grid: deviation in total charge (<rho> - N_e) =   1.779017E-07
  | <rho_up-rho_dn> = N_up-N_dn =     -2.0000; <|rho_up-rho_dn|> =      2.0000
  Pulay mixing of updated and previous charge densities.

  Evaluating partitioned Hartree potential by multipole expansion.
  | Analytical far-field extrapolation by fixed multipoles:
  | Hartree multipole sum: apparent total charge =  -0.105921E-04
  Summing up the Hartree potential.
  Time summed over all CPUs for potential: real work        0.031 s, elapsed        0.031 s
  | RMS charge density error from multipole expansion :   0.813020E-03

  Integrating Hamiltonian matrix: batch-based integration.
  Time summed over all CPUs for integration: real work        0.062 s, elapsed        0.067 s

  Updating Kohn-Sham eigenvalues, eigenvectors, occupation numbers, and Fermi level.
  Solving generalized eigenproblem
  Solving real symmetric generalised eigenvalue problem by standard ScaLAPACK.
  Using Cholesky factor for transformation
  Using 1-stage real ELPA solver
  Solving real symmetric generalised eigenvalue problem by standard ScaLAPACK.
  Using Cholesky factor for transformation
  Using 1-stage real ELPA solver
  Determining occupation numbers for Kohn-Sham eigenstates.
  | Chemical potential (Fermi level) in eV                 : -.10117770E+02
  | Error in electron count due to remaining E_F inaccuracy: 0.00000000E+00
  | Maximum occupation number of highest empty state:  0.00E+00

  Current spin moment of the entire structure :
  | N = N_up - N_down :    0.00
  | S                 :    0.00
  | J                 :    1.00

  Highest occupied state (VBM) at    -11.63159101 eV
  | Occupation number:      1.00000000
  | Spin channel:        2

  Lowest unoccupied state (CBM) at     1.33806307 eV
  | Occupation number:      0.00000000
  | Spin channel:        1

  Overall HOMO-LUMO gap:     12.96965408 eV.

  Total energy components:
  | Sum of eigenvalues            :          -1.12122657 Ha         -30.51012728 eV
  | XC energy correction          :          -0.59773462 Ha         -16.26518652 eV
  | XC potential correction       :           0.77138409 Ha          20.99042904 eV
  | Free-atom electrostatic energy:          -0.13422188 Ha          -3.65236315 eV
  | Hartree energy correction     :           0.03652828 Ha           0.99398495 eV
  | van der Waals energy corr.    :           0.00000000 Ha           0.00000000 eV
  | Entropy correction            :           0.00000000 Ha           0.00000000 eV
  | ---------------------------
  | Total energy                  :          -1.04527070 Ha         -28.44326297 eV
  | Total energy, T -> 0          :          -1.04527070 Ha         -28.44326297 eV  <-- do not rely on this value for anything but (periodic) metals
  | Electronic free energy        :          -1.04527070 Ha         -28.44326297 eV

  Derived energy quantities:
  | Kinetic energy                :           0.82765124 Ha          22.52153611 eV
  | Electrostatic energy          :          -1.27518732 Ha         -34.69961256 eV
  | Energy correction for multipole
  | error in Hartree potential    :          -0.00011876 Ha          -0.00323164 eV
  | Sum of eigenvalues per atom                           :         -15.25506364 eV
  | Total energy (T->0) per atom                          :         -14.22163148 eV  <-- do not rely on this value for anything but (periodic) metals
  | Electronic free energy per atom                       :         -14.22163148 eV

  Self-consistency convergence accuracy:
  | Change of charge/spin density : 0.1382E+00 0.3070E+00
  | Change of sum of eigenvalues  : -.5671E+01 eV
  | Change of total energy        : -.4828E+01 eV

  End self-consistency iteration #     2       :  max(cpu_time)    wall_clock(cpu1)
  | Time for this iteration                    :        0.023 s           0.022 s
  | Charge density update                      :        0.006 s           0.005 s
  | Density mixing                             :        0.001 s           0.001 s
  | Hartree multipole update                   :        0.001 s           0.001 s
  | Hartree multipole summation                :        0.004 s           0.005 s
  | Integration                                :        0.008 s           0.008 s
  | Solution of K.-S. eqns.                    :        0.001 s           0.001 s
  | Total energy evaluation                    :        0.000 s           0.000 s
------------------------------------------------------------

------------------------------------------------------------
          Begin self-consistency iteration #    3

  Date     :  20220120, Time     :  152846.378
------------------------------------------------------------
  Evaluating new KS density.
  Integration grid: deviation in total charge (<rho> - N_e) =   1.736533E-07
  | <rho_up-rho_dn> = N_up-N_dn =     -1.9284; <|rho_up-rho_dn|> =      1.9284
  Pulay mixing of updated and previous charge densities.

  Evaluating partitioned Hartree potential by multipole expansion.
  | Analytical far-field extrapolation by fixed multipoles:
  | Hartree multipole sum: apparent total charge =  -0.107775E-04
  Summing up the Hartree potential.
  Time summed over all CPUs for potential: real work        0.031 s, elapsed        0.031 s
  | RMS charge density error from multipole expansion :   0.742695E-03

  Integrating Hamiltonian matrix: batch-based integration.
  Time summed over all CPUs for integration: real work        0.061 s, elapsed        0.066 s

  Updating Kohn-Sham eigenvalues, eigenvectors, occupation numbers, and Fermi level.
  Solving generalized eigenproblem
  Solving real symmetric generalised eigenvalue problem by standard ScaLAPACK.
  Using Cholesky factor for transformation
  Using 1-stage real ELPA solver
  Solving real symmetric generalised eigenvalue problem by standard ScaLAPACK.
  Using Cholesky factor for transformation
  Using 1-stage real ELPA solver
  Determining occupation numbers for Kohn-Sham eigenstates.
  | Chemical potential (Fermi level) in eV                 : -.84540330E+01
  | Error in electron count due to remaining E_F inaccuracy: 0.00000000E+00
  | Maximum occupation number of highest empty state:  0.00E+00

  Current spin moment of the entire structure :
  | N = N_up - N_down :    0.00
  | S                 :    0.00
  | J                 :    1.00

  Highest occupied state (VBM) at    -10.64160189 eV
  | Occupation number:      1.00000000
  | Spin channel:        2

  Lowest unoccupied state (CBM) at     1.31881224 eV
  | Occupation number:      0.00000000
  | Spin channel:        1

  Overall HOMO-LUMO gap:     11.96041413 eV.

  Total energy components:
  | Sum of eigenvalues            :          -1.00771153 Ha         -27.42122581 eV
  | XC energy correction          :          -0.52849984 Ha         -14.38121238 eV
  | XC potential correction       :           0.68038464 Ha          18.51420798 eV
  | Free-atom electrostatic energy:          -0.13422188 Ha          -3.65236315 eV
  | Hartree energy correction     :           0.04901556 Ha           1.33378136 eV
  | van der Waals energy corr.    :           0.00000000 Ha           0.00000000 eV
  | Entropy correction            :           0.00000000 Ha           0.00000000 eV
  | ---------------------------
  | Total energy                  :          -0.94103304 Ha         -25.60681200 eV
  | Total energy, T -> 0          :          -0.94103304 Ha         -25.60681200 eV  <-- do not rely on this value for anything but (periodic) metals
  | Electronic free energy        :          -0.94103304 Ha         -25.60681200 eV

  Derived energy quantities:
  | Kinetic energy                :           0.83155829 Ha          22.62785236 eV
  | Electrostatic energy          :          -1.24409149 Ha         -33.85345198 eV
  | Energy correction for multipole
  | error in Hartree potential    :          -0.00010613 Ha          -0.00288798 eV
  | Sum of eigenvalues per atom                           :         -13.71061290 eV
  | Total energy (T->0) per atom                          :         -12.80340600 eV  <-- do not rely on this value for anything but (periodic) metals
  | Electronic free energy per atom                       :         -12.80340600 eV

  Self-consistency convergence accuracy:
  | Change of charge/spin density : 0.2169E+00 0.2801E+00
  | Change of sum of eigenvalues  : 0.3089E+01 eV
  | Change of total energy        : 0.2836E+01 eV

  End self-consistency iteration #     3       :  max(cpu_time)    wall_clock(cpu1)
  | Time for this iteration                    :        0.024 s           0.023 s
  | Charge density update                      :        0.006 s           0.006 s
  | Density mixing                             :        0.001 s           0.001 s
  | Hartree multipole update                   :        0.001 s           0.001 s
  | Hartree multipole summation                :        0.004 s           0.005 s
  | Integration                                :        0.008 s           0.008 s
  | Solution of K.-S. eqns.                    :        0.001 s           0.001 s
  | Total energy evaluation                    :        0.000 s           0.000 s
------------------------------------------------------------

------------------------------------------------------------
          Begin self-consistency iteration #    4

  Date     :  20220120, Time     :  152846.404
------------------------------------------------------------
  Evaluating new KS density.
  Integration grid: deviation in total charge (<rho> - N_e) =   1.745869E-07
  | <rho_up-rho_dn> = N_up-N_dn =     -1.9401; <|rho_up-rho_dn|> =      1.9401
  Pulay mixing of updated and previous charge densities.

  Evaluating partitioned Hartree potential by multipole expansion.
  | Analytical far-field extrapolation by fixed multipoles:
  | Hartree multipole sum: apparent total charge =  -0.108919E-04
  Summing up the Hartree potential.
  Time summed over all CPUs for potential: real work        0.031 s, elapsed        0.031 s
  | RMS charge density error from multipole expansion :   0.101667E-02

  Integrating Hamiltonian matrix: batch-based integration.
  Time summed over all CPUs for integration: real work        0.062 s, elapsed        0.066 s

  Updating Kohn-Sham eigenvalues, eigenvectors, occupation numbers, and Fermi level.
  Solving generalized eigenproblem
  Solving real symmetric generalised eigenvalue problem by standard ScaLAPACK.
  Using Cholesky factor for transformation
  Using 1-stage real ELPA solver
  Solving real symmetric generalised eigenvalue problem by standard ScaLAPACK.
  Using Cholesky factor for transformation
  Using 1-stage real ELPA solver
  Determining occupation numbers for Kohn-Sham eigenstates.
  | Chemical potential (Fermi level) in eV                 : -.87702489E+01
  | Error in electron count due to remaining E_F inaccuracy: 0.00000000E+00
  | Maximum occupation number of highest empty state:  0.00E+00

  Current spin moment of the entire structure :
  | N = N_up - N_down :    0.00
  | S                 :    0.00
  | J                 :    1.00

  Highest occupied state (VBM) at    -13.12075618 eV
  | Occupation number:      1.00000000
  | Spin channel:        2

  Lowest unoccupied state (CBM) at     0.10580298 eV
  | Occupation number:      0.00000000
  | Spin channel:        1

  Overall HOMO-LUMO gap:     13.22655916 eV.

  Total energy components:
  | Sum of eigenvalues            :          -1.09159247 Ha         -29.70374245 eV
  | XC energy correction          :          -0.50553783 Ha         -13.75638424 eV
  | XC potential correction       :           0.65052933 Ha          17.70180385 eV
  | Free-atom electrostatic energy:          -0.13422188 Ha          -3.65236315 eV
  | Hartree energy correction     :           0.11928415 Ha           3.24588700 eV
  | van der Waals energy corr.    :           0.00000000 Ha           0.00000000 eV
  | Entropy correction            :           0.00000000 Ha           0.00000000 eV
  | ---------------------------
  | Total energy                  :          -0.96153869 Ha         -26.16479900 eV
  | Total energy, T -> 0          :          -0.96153869 Ha         -26.16479900 eV  <-- do not rely on this value for anything but (periodic) metals
  | Electronic free energy        :          -0.96153869 Ha         -26.16479900 eV

  Derived energy quantities:
  | Kinetic energy                :           0.44541381 Ha          12.12032638 eV
  | Electrostatic energy          :          -0.90141467 Ha         -24.52874113 eV
  | Energy correction for multipole
  | error in Hartree potential    :           0.00012287 Ha           0.00334347 eV
  | Sum of eigenvalues per atom                           :         -14.85187122 eV
  | Total energy (T->0) per atom                          :         -13.08239950 eV  <-- do not rely on this value for anything but (periodic) metals
  | Electronic free energy per atom                       :         -13.08239950 eV

  Self-consistency convergence accuracy:
  | Change of charge/spin density : 0.1698E+00 0.2901E+00
  | Change of sum of eigenvalues  : -.2283E+01 eV
  | Change of total energy        : -.5580E+00 eV

  End self-consistency iteration #     4       :  max(cpu_time)    wall_clock(cpu1)
  | Time for this iteration                    :        0.025 s           0.024 s
  | Charge density update                      :        0.007 s           0.006 s
  | Density mixing                             :        0.001 s           0.001 s
  | Hartree multipole update                   :        0.001 s           0.001 s
  | Hartree multipole summation                :        0.005 s           0.005 s
  | Integration                                :        0.008 s           0.008 s
  | Solution of K.-S. eqns.                    :        0.001 s           0.002 s
  | Total energy evaluation                    :        0.000 s           0.001 s
------------------------------------------------------------

------------------------------------------------------------
          Begin self-consistency iteration #    5

  Date     :  20220120, Time     :  152846.429
------------------------------------------------------------
  Evaluating new KS density.
  Integration grid: deviation in total charge (<rho> - N_e) =   1.489867E-07
  | <rho_up-rho_dn> = N_up-N_dn =     -1.5554; <|rho_up-rho_dn|> =      1.5554
  Pulay mixing of updated and previous charge densities.

  Evaluating partitioned Hartree potential by multipole expansion.
  | Analytical far-field extrapolation by fixed multipoles:
  | Hartree multipole sum: apparent total charge =  -0.127522E-04
  Summing up the Hartree potential.
  Time summed over all CPUs for potential: real work        0.030 s, elapsed        0.031 s
  | RMS charge density error from multipole expansion :   0.645056E-02

  Integrating Hamiltonian matrix: batch-based integration.
  Time summed over all CPUs for integration: real work        0.065 s, elapsed        0.069 s

  Updating Kohn-Sham eigenvalues, eigenvectors, occupation numbers, and Fermi level.
  Solving generalized eigenproblem
  Solving real symmetric generalised eigenvalue problem by standard ScaLAPACK.
  Using Cholesky factor for transformation
  Using 1-stage real ELPA solver
  Solving real symmetric generalised eigenvalue problem by standard ScaLAPACK.
  Using Cholesky factor for transformation
  Using 1-stage real ELPA solver
  Determining occupation numbers for Kohn-Sham eigenstates.
  | Chemical potential (Fermi level) in eV                 : -.20311047E+02
  | Error in electron count due to remaining E_F inaccuracy: 0.00000000E+00
  | Maximum occupation number of highest empty state:  0.00E+00

  Current spin moment of the entire structure :
  | N = N_up - N_down :    0.00
  | S                 :    0.00
  | J                 :    1.00

  Highest occupied state (VBM) at    -22.18432012 eV
  | Occupation number:      1.00000000
  | Spin channel:        2

  Lowest unoccupied state (CBM) at    -2.03456987 eV
  | Occupation number:      0.00000000
  | Spin channel:        1

  Overall HOMO-LUMO gap:     20.14975025 eV.

  Total energy components:
  | Sum of eigenvalues            :          -1.67116375 Ha         -45.47467939 eV
  | XC energy correction          :          -0.69563611 Ha         -18.92922171 eV
  | XC potential correction       :           0.89388626 Ha          24.32388259 eV
  | Free-atom electrostatic energy:          -0.13422188 Ha          -3.65236315 eV
  | Hartree energy correction     :           0.14141781 Ha           3.84817440 eV
  | van der Waals energy corr.    :           0.00000000 Ha           0.00000000 eV
  | Entropy correction            :           0.00000000 Ha           0.00000000 eV
  | ---------------------------
  | Total energy                  :          -1.46571768 Ha         -39.88420726 eV
  | Total energy, T -> 0          :          -1.46571768 Ha         -39.88420726 eV  <-- do not rely on this value for anything but (periodic) metals
  | Electronic free energy        :          -1.46571768 Ha         -39.88420726 eV

  Derived energy quantities:
  | Kinetic energy                :          -1.61523879 Ha         -43.95288365 eV
  | Electrostatic energy          :           0.84515722 Ha          22.99789810 eV
  | Energy correction for multipole
  | error in Hartree potential    :           0.00102626 Ha           0.02792587 eV
  | Sum of eigenvalues per atom                           :         -22.73733969 eV
  | Total energy (T->0) per atom                          :         -19.94210363 eV  <-- do not rely on this value for anything but (periodic) metals
  | Electronic free energy per atom                       :         -19.94210363 eV

  Self-consistency convergence accuracy:
  | Change of charge/spin density : 0.2793E+00 0.2219E+00
  | Change of sum of eigenvalues  : -.1577E+02 eV
  | Change of total energy        : -.1372E+02 eV

  End self-consistency iteration #     5       :  max(cpu_time)    wall_clock(cpu1)
  | Time for this iteration                    :        0.024 s           0.024 s
  | Charge density update                      :        0.006 s           0.006 s
  | Density mixing                             :        0.001 s           0.001 s
  | Hartree multipole update                   :        0.001 s           0.002 s
  | Hartree multipole summation                :        0.004 s           0.004 s
  | Integration                                :        0.009 s           0.009 s
  | Solution of K.-S. eqns.                    :        0.001 s           0.001 s
  | Total energy evaluation                    :        0.000 s           0.001 s
------------------------------------------------------------

------------------------------------------------------------
          Begin self-consistency iteration #    6

  Date     :  20220120, Time     :  152846.459
------------------------------------------------------------
  Evaluating new KS density.
  Integration grid: deviation in total charge (<rho> - N_e) =   6.735009E-08
  | <rho_up-rho_dn> = N_up-N_dn =     -0.4805; <|rho_up-rho_dn|> =      1.0031
  Pulay mixing of updated and previous charge densities.

  Evaluating partitioned Hartree potential by multipole expansion.
  | Analytical far-field extrapolation by fixed multipoles:
  | Hartree multipole sum: apparent total charge =  -0.167878E-04
  Summing up the Hartree potential.
  Time summed over all CPUs for potential: real work        0.031 s, elapsed        0.031 s
  | RMS charge density error from multipole expansion :   0.108233E-01

  Integrating Hamiltonian matrix: batch-based integration.
  Time summed over all CPUs for integration: real work        0.065 s, elapsed        0.068 s

  Updating Kohn-Sham eigenvalues, eigenvectors, occupation numbers, and Fermi level.
  Solving generalized eigenproblem
  Solving real symmetric generalised eigenvalue problem by standard ScaLAPACK.
  Using Cholesky factor for transformation
  Using 1-stage real ELPA solver
  Solving real symmetric generalised eigenvalue problem by standard ScaLAPACK.
  Using Cholesky factor for transformation
  Using 1-stage real ELPA solver
  Determining occupation numbers for Kohn-Sham eigenstates.
  | Chemical potential (Fermi level) in eV                 : -.29527974E+02
  | Error in electron count due to remaining E_F inaccuracy: 0.00000000E+00
  | Maximum occupation number of highest empty state:  0.00E+00

  Current spin moment of the entire structure :
  | N = N_up - N_down :    0.00
  | S                 :    0.00
  | J                 :    1.00

  Highest occupied state (VBM) at    -32.09326416 eV
  | Occupation number:      1.00000000
  | Spin channel:        2

  Lowest unoccupied state (CBM) at    -4.53024370 eV
  | Occupation number:      0.00000000
  | Spin channel:        1

  Overall HOMO-LUMO gap:     27.56302046 eV.

  Total energy components:
  | Sum of eigenvalues            :          -2.39478914 Ha         -65.16552799 eV
  | XC energy correction          :          -0.89638729 Ha         -24.39193910 eV
  | XC potential correction       :           1.15340101 Ha          31.38563838 eV
  | Free-atom electrostatic energy:          -0.13422188 Ha          -3.65236315 eV
  | Hartree energy correction     :          -0.17504730 Ha          -4.76327943 eV
  | van der Waals energy corr.    :           0.00000000 Ha           0.00000000 eV
  | Entropy correction            :           0.00000000 Ha           0.00000000 eV
  | ---------------------------
  | Total energy                  :          -2.44704459 Ha         -66.58747129 eV
  | Total energy, T -> 0          :          -2.44704459 Ha         -66.58747129 eV  <-- do not rely on this value for anything but (periodic) metals
  | Electronic free energy        :          -2.44704459 Ha         -66.58747129 eV

  Derived energy quantities:
  | Kinetic energy                :          -4.29987549 Ha        -117.00556525 eV
  | Electrostatic energy          :           2.74921818 Ha          74.81003306 eV
  | Energy correction for multipole
  | error in Hartree potential    :           0.00170865 Ha           0.04649484 eV
  | Sum of eigenvalues per atom                           :         -32.58276400 eV
  | Total energy (T->0) per atom                          :         -33.29373564 eV  <-- do not rely on this value for anything but (periodic) metals
  | Electronic free energy per atom                       :         -33.29373564 eV

  Self-consistency convergence accuracy:
  | Change of charge/spin density : 0.9467E+00 0.2643E+00
  | Change of sum of eigenvalues  : -.1969E+02 eV
  | Change of total energy        : -.2670E+02 eV

  End self-consistency iteration #     6       :  max(cpu_time)    wall_clock(cpu1)
  | Time for this iteration                    :        0.025 s           0.023 s
  | Charge density update                      :        0.007 s           0.005 s
  | Density mixing                             :        0.001 s           0.002 s
  | Hartree multipole update                   :        0.001 s           0.001 s
  | Hartree multipole summation                :        0.004 s           0.004 s
  | Integration                                :        0.009 s           0.009 s
  | Solution of K.-S. eqns.                    :        0.001 s           0.001 s
  | Total energy evaluation                    :        0.000 s           0.000 s
------------------------------------------------------------

------------------------------------------------------------
          Begin self-consistency iteration #    7

  Date     :  20220120, Time     :  152846.488
------------------------------------------------------------
  Evaluating new KS density.
  Integration grid: deviation in total charge (<rho> - N_e) =   4.611580E-08
  | <rho_up-rho_dn> = N_up-N_dn =     -0.3140; <|rho_up-rho_dn|> =      1.3676
  Pulay mixing of updated and previous charge densities.

  Evaluating partitioned Hartree potential by multipole expansion.
  | Analytical far-field extrapolation by fixed multipoles:
  | Hartree multipole sum: apparent total charge =  -0.186802E-04
  Summing up the Hartree potential.
  Time summed over all CPUs for potential: real work        0.031 s, elapsed        0.031 s
  | RMS charge density error from multipole expansion :   0.126365E-01

  Integrating Hamiltonian matrix: batch-based integration.
  Time summed over all CPUs for integration: real work        0.065 s, elapsed        0.068 s

  Updating Kohn-Sham eigenvalues, eigenvectors, occupation numbers, and Fermi level.
  Solving generalized eigenproblem
  Solving real symmetric generalised eigenvalue problem by standard ScaLAPACK.
  Using Cholesky factor for transformation
  Using 1-stage real ELPA solver
  Solving real symmetric generalised eigenvalue problem by standard ScaLAPACK.
  Using Cholesky factor for transformation
  Using 1-stage real ELPA solver
  Determining occupation numbers for Kohn-Sham eigenstates.
  | Chemical potential (Fermi level) in eV                 : -.34178755E+02
  | Error in electron count due to remaining E_F inaccuracy: 0.00000000E+00
  | Maximum occupation number of highest empty state:  0.00E+00

  Current spin moment of the entire structure :
  | N = N_up - N_down :    0.00
  | S                 :    0.00
  | J                 :    1.00

  Highest occupied state (VBM) at    -37.09819248 eV
  | Occupation number:      1.00000000
  | Spin channel:        2

  Lowest unoccupied state (CBM) at    -6.19744734 eV
  | Occupation number:      0.00000000
  | Spin channel:        1

  Overall HOMO-LUMO gap:     30.90074514 eV.

  Total energy components:
  | Sum of eigenvalues            :          -2.76056839 Ha         -75.11888789 eV
  | XC energy correction          :          -0.99378527 Ha         -27.04227304 eV
  | XC potential correction       :           1.27932398 Ha          34.81217666 eV
  | Free-atom electrostatic energy:          -0.13422188 Ha          -3.65236315 eV
  | Hartree energy correction     :          -0.42059052 Ha         -11.44485046 eV
  | van der Waals energy corr.    :           0.00000000 Ha           0.00000000 eV
  | Entropy correction            :           0.00000000 Ha           0.00000000 eV
  | ---------------------------
  | Total energy                  :          -3.02984208 Ha         -82.44619787 eV
  | Total energy, T -> 0          :          -3.02984208 Ha         -82.44619787 eV  <-- do not rely on this value for anything but (periodic) metals
  | Electronic free energy        :          -3.02984208 Ha         -82.44619787 eV

  Derived energy quantities:
  | Kinetic energy                :          -5.70742446 Ha        -155.30692137 eV
  | Electrostatic energy          :           3.67136764 Ha          99.90299654 eV
  | Energy correction for multipole
  | error in Hartree potential    :           0.00198617 Ha           0.05404641 eV
  | Sum of eigenvalues per atom                           :         -37.55944394 eV
  | Total energy (T->0) per atom                          :         -41.22309894 eV  <-- do not rely on this value for anything but (periodic) metals
  | Electronic free energy per atom                       :         -41.22309894 eV

  Self-consistency convergence accuracy:
  | Change of charge/spin density : 0.1530E+01 0.4614E+00
  | Change of sum of eigenvalues  : -.9953E+01 eV
  | Change of total energy        : -.1586E+02 eV

  End self-consistency iteration #     7       :  max(cpu_time)    wall_clock(cpu1)
  | Time for this iteration                    :        0.024 s           0.024 s
  | Charge density update                      :        0.006 s           0.005 s
  | Density mixing                             :        0.001 s           0.002 s
  | Hartree multipole update                   :        0.001 s           0.001 s
  | Hartree multipole summation                :        0.004 s           0.004 s
  | Integration                                :        0.009 s           0.009 s
  | Solution of K.-S. eqns.                    :        0.001 s           0.002 s
  | Total energy evaluation                    :        0.000 s           0.000 s
------------------------------------------------------------

------------------------------------------------------------
          Begin self-consistency iteration #    8

  Date     :  20220120, Time     :  152846.517
------------------------------------------------------------
  Evaluating new KS density.
  Integration grid: deviation in total charge (<rho> - N_e) =   4.040856E-08
  | <rho_up-rho_dn> = N_up-N_dn =     -0.2558; <|rho_up-rho_dn|> =      1.5490
  Pulay mixing of updated and previous charge densities.

  Evaluating partitioned Hartree potential by multipole expansion.
  | Analytical far-field extrapolation by fixed multipoles:
  | Hartree multipole sum: apparent total charge =  -0.178718E-04
  Summing up the Hartree potential.
  Time summed over all CPUs for potential: real work        0.030 s, elapsed        0.031 s
  | RMS charge density error from multipole expansion :   0.121722E-01

  Integrating Hamiltonian matrix: batch-based integration.
  Time summed over all CPUs for integration: real work        0.065 s, elapsed        0.068 s

  Updating Kohn-Sham eigenvalues, eigenvectors, occupation numbers, and Fermi level.
  Solving generalized eigenproblem
  Solving real symmetric generalised eigenvalue problem by standard ScaLAPACK.
  Using Cholesky factor for transformation
  Using 1-stage real ELPA solver
  Solving real symmetric generalised eigenvalue problem by standard ScaLAPACK.
  Using Cholesky factor for transformation
  Using 1-stage real ELPA solver
  Determining occupation numbers for Kohn-Sham eigenstates.
  | Chemical potential (Fermi level) in eV                 : -.32715728E+02
  | Error in electron count due to remaining E_F inaccuracy: 0.00000000E+00
  | Maximum occupation number of highest empty state:  0.00E+00

  Current spin moment of the entire structure :
  | N = N_up - N_down :    0.00
  | S                 :    0.00
  | J                 :    1.00

  Highest occupied state (VBM) at    -35.50958788 eV
  | Occupation number:      1.00000000
  | Spin channel:        2

  Lowest unoccupied state (CBM) at    -5.63495032 eV
  | Occupation number:      0.00000000
  | Spin channel:        1

  Overall HOMO-LUMO gap:     29.87463756 eV.

  Total energy components:
  | Sum of eigenvalues            :          -2.64508887 Ha         -71.97653030 eV
  | XC energy correction          :          -0.96793322 Ha         -26.33880291 eV
  | XC potential correction       :           1.24593765 Ha          33.90368851 eV
  | Free-atom electrostatic energy:          -0.13422188 Ha          -3.65236315 eV
  | Hartree energy correction     :          -0.34440237 Ha          -9.37166533 eV
  | van der Waals energy corr.    :           0.00000000 Ha           0.00000000 eV
  | Entropy correction            :           0.00000000 Ha           0.00000000 eV
  | ---------------------------
  | Total energy                  :          -2.84570868 Ha         -77.43567318 eV
  | Total energy, T -> 0          :          -2.84570868 Ha         -77.43567318 eV  <-- do not rely on this value for anything but (periodic) metals
  | Electronic free energy        :          -2.84570868 Ha         -77.43567318 eV

  Derived energy quantities:
  | Kinetic energy                :          -5.26428440 Ha        -143.24846687 eV
  | Electrostatic energy          :           3.38650893 Ha          92.15159660 eV
  | Energy correction for multipole
  | error in Hartree potential    :           0.00194515 Ha           0.05293016 eV
  | Sum of eigenvalues per atom                           :         -35.98826515 eV
  | Total energy (T->0) per atom                          :         -38.71783659 eV  <-- do not rely on this value for anything but (periodic) metals
  | Electronic free energy per atom                       :         -38.71783659 eV

  Self-consistency convergence accuracy:
  | Change of charge/spin density : 0.1772E+01 0.5458E+00
  | Change of sum of eigenvalues  : 0.3142E+01 eV
  | Change of total energy        : 0.5011E+01 eV

  End self-consistency iteration #     8       :  max(cpu_time)    wall_clock(cpu1)
  | Time for this iteration                    :        0.028 s           0.024 s
  | Charge density update                      :        0.010 s           0.006 s
  | Density mixing                             :        0.002 s           0.001 s
  | Hartree multipole update                   :        0.001 s           0.002 s
  | Hartree multipole summation                :        0.004 s           0.004 s
  | Integration                                :        0.009 s           0.009 s
  | Solution of K.-S. eqns.                    :        0.001 s           0.001 s
  | Total energy evaluation                    :        0.000 s           0.001 s
------------------------------------------------------------

------------------------------------------------------------
          Begin self-consistency iteration #    9

  Date     :  20220120, Time     :  152846.543
------------------------------------------------------------
  Evaluating new KS density.
  Integration grid: deviation in total charge (<rho> - N_e) =   3.774578E-08
  | <rho_up-rho_dn> = N_up-N_dn =     -0.2633; <|rho_up-rho_dn|> =      1.5020
  Pulay mixing of updated and previous charge densities.

  Evaluating partitioned Hartree potential by multipole expansion.
  | Analytical far-field extrapolation by fixed multipoles:
  | Hartree multipole sum: apparent total charge =   0.703666E-05
  Summing up the Hartree potential.
  Time summed over all CPUs for potential: real work        0.031 s, elapsed        0.031 s
  | RMS charge density error from multipole expansion :   0.596828E-02

  Integrating Hamiltonian matrix: batch-based integration.
  Time summed over all CPUs for integration: real work        0.057 s, elapsed        0.061 s

  Updating Kohn-Sham eigenvalues, eigenvectors, occupation numbers, and Fermi level.
  Solving generalized eigenproblem
  Solving real symmetric generalised eigenvalue problem by standard ScaLAPACK.
  Using Cholesky factor for transformation
  Using 1-stage real ELPA solver
  Solving real symmetric generalised eigenvalue problem by standard ScaLAPACK.
  Using Cholesky factor for transformation
  Using 1-stage real ELPA solver
  Determining occupation numbers for Kohn-Sham eigenstates.
  | Chemical potential (Fermi level) in eV                 : 0.11238815E+01
  | Error in electron count due to remaining E_F inaccuracy: 0.00000000E+00
  | Maximum occupation number of highest empty state:  0.00E+00

  Current spin moment of the entire structure :
  | N = N_up - N_down :    0.00
  | S                 :    0.00
  | J                 :    1.00

  Highest occupied state (VBM) at     -0.88963657 eV
  | Occupation number:      1.00000000
  | Spin channel:        2

  Lowest unoccupied state (CBM) at     2.74741319 eV
  | Occupation number:      0.00000000
  | Spin channel:        2

  Overall HOMO-LUMO gap:      3.63704976 eV.

  Total energy components:
  | Sum of eigenvalues            :          -0.06841418 Ha          -1.86164454 eV
  | XC energy correction          :          -1.33471119 Ha         -36.31933938 eV
  | XC potential correction       :           1.72115868 Ha          46.83511064 eV
  | Free-atom electrostatic energy:          -0.13422188 Ha          -3.65236315 eV
  | Hartree energy correction     :          -1.53723626 Ha         -41.83032701 eV
  | van der Waals energy corr.    :           0.00000000 Ha           0.00000000 eV
  | Entropy correction            :           0.00000000 Ha           0.00000000 eV
  | ---------------------------
  | Total energy                  :          -1.35342483 Ha         -36.82856344 eV
  | Total energy, T -> 0          :          -1.35342483 Ha         -36.82856344 eV  <-- do not rely on this value for anything but (periodic) metals
  | Electronic free energy        :          -1.35342483 Ha         -36.82856344 eV

  Derived energy quantities:
  | Kinetic energy                :           2.51059666 Ha          68.31681107 eV
  | Electrostatic energy          :          -2.52931030 Ha         -68.82603514 eV
  | Energy correction for multipole
  | error in Hartree potential    :          -0.00021567 Ha          -0.00586871 eV
  | Sum of eigenvalues per atom                           :          -0.93082227 eV
  | Total energy (T->0) per atom                          :         -18.41428172 eV  <-- do not rely on this value for anything but (periodic) metals
  | Electronic free energy per atom                       :         -18.41428172 eV

  Self-consistency convergence accuracy:
  | Change of charge/spin density : 0.1703E+01 0.5244E+00
  | Change of sum of eigenvalues  : 0.7011E+02 eV
  | Change of total energy        : 0.4061E+02 eV

  End self-consistency iteration #     9       :  max(cpu_time)    wall_clock(cpu1)
  | Time for this iteration                    :        0.024 s           0.023 s
  | Charge density update                      :        0.006 s           0.005 s
  | Density mixing                             :        0.002 s           0.002 s
  | Hartree multipole update                   :        0.001 s           0.001 s
  | Hartree multipole summation                :        0.004 s           0.005 s
  | Integration                                :        0.008 s           0.007 s
  | Solution of K.-S. eqns.                    :        0.001 s           0.002 s
  | Total energy evaluation                    :        0.000 s           0.001 s
------------------------------------------------------------

------------------------------------------------------------
          Begin self-consistency iteration #   10

  Date     :  20220120, Time     :  152846.567
------------------------------------------------------------
  Evaluating new KS density.
  Integration grid: deviation in total charge (<rho> - N_e) =  -4.183617E-09
  | <rho_up-rho_dn> = N_up-N_dn =      0.0504; <|rho_up-rho_dn|> =      0.6178
  Pulay mixing of updated and previous charge densities.

  Evaluating partitioned Hartree potential by multipole expansion.
  | Analytical far-field extrapolation by fixed multipoles:
  | Hartree multipole sum: apparent total charge =   0.523126E-05
  Summing up the Hartree potential.
  Time summed over all CPUs for potential: real work        0.031 s, elapsed        0.031 s
  | RMS charge density error from multipole expansion :   0.514511E-02

  Integrating Hamiltonian matrix: batch-based integration.
  Time summed over all CPUs for integration: real work        0.059 s, elapsed        0.062 s

  Updating Kohn-Sham eigenvalues, eigenvectors, occupation numbers, and Fermi level.
  Solving generalized eigenproblem
  Solving real symmetric generalised eigenvalue problem by standard ScaLAPACK.
  Using Cholesky factor for transformation
  Using 1-stage real ELPA solver
  Solving real symmetric generalised eigenvalue problem by standard ScaLAPACK.
  Using Cholesky factor for transformation
  Using 1-stage real ELPA solver
  Determining occupation numbers for Kohn-Sham eigenstates.
  | Chemical potential (Fermi level) in eV                 : -.56626313E+00
  | Error in electron count due to remaining E_F inaccuracy: 0.00000000E+00
  | Maximum occupation number of highest empty state:  0.00E+00

  Current spin moment of the entire structure :
  | N = N_up - N_down :    0.00
  | S                 :    0.00
  | J                 :    1.00

  Highest occupied state (VBM) at     -2.58995278 eV
  | Occupation number:      1.00000000
  | Spin channel:        2

  Lowest unoccupied state (CBM) at     2.57487795 eV
  | Occupation number:      0.00000000
  | Spin channel:        1

  Overall HOMO-LUMO gap:      5.16483073 eV.

  Total energy components:
  | Sum of eigenvalues            :          -0.19449955 Ha          -5.29260213 eV
  | XC energy correction          :          -1.20948201 Ha         -32.91167994 eV
  | XC potential correction       :           1.55851801 Ha          42.40943278 eV
  | Free-atom electrostatic energy:          -0.13422188 Ha          -3.65236315 eV
  | Hartree energy correction     :          -1.26666072 Ha         -34.46759198 eV
  | van der Waals energy corr.    :           0.00000000 Ha           0.00000000 eV
  | Entropy correction            :           0.00000000 Ha           0.00000000 eV
  | ---------------------------
  | Total energy                  :          -1.24634615 Ha         -33.91480442 eV
  | Total energy, T -> 0          :          -1.24634615 Ha         -33.91480442 eV  <-- do not rely on this value for anything but (periodic) metals
  | Electronic free energy        :          -1.24634615 Ha         -33.91480442 eV

  Derived energy quantities:
  | Kinetic energy                :           2.38473116 Ha          64.89183660 eV
  | Electrostatic energy          :          -2.42159531 Ha         -65.89496108 eV
  | Energy correction for multipole
  | error in Hartree potential    :          -0.00017597 Ha          -0.00478836 eV
  | Sum of eigenvalues per atom                           :          -2.64630106 eV
  | Total energy (T->0) per atom                          :         -16.95740221 eV  <-- do not rely on this value for anything but (periodic) metals
  | Electronic free energy per atom                       :         -16.95740221 eV

  Self-consistency convergence accuracy:
  | Change of charge/spin density : 0.6598E+00 0.2123E+00
  | Change of sum of eigenvalues  : -.3431E+01 eV
  | Change of total energy        : 0.2914E+01 eV

  End self-consistency iteration #    10       :  max(cpu_time)    wall_clock(cpu1)
  | Time for this iteration                    :        0.024 s           0.023 s
  | Charge density update                      :        0.006 s           0.005 s
  | Density mixing                             :        0.002 s           0.002 s
  | Hartree multipole update                   :        0.001 s           0.001 s
  | Hartree multipole summation                :        0.004 s           0.004 s
  | Integration                                :        0.008 s           0.008 s
  | Solution of K.-S. eqns.                    :        0.001 s           0.002 s
  | Total energy evaluation                    :        0.000 s           0.001 s
------------------------------------------------------------

------------------------------------------------------------
          Begin self-consistency iteration #   11

  Date     :  20220120, Time     :  152846.592
------------------------------------------------------------
  Evaluating new KS density.
  Integration grid: deviation in total charge (<rho> - N_e) =   4.743724E-09
  | <rho_up-rho_dn> = N_up-N_dn =     -0.0011; <|rho_up-rho_dn|> =      0.5000
  Pulay mixing of updated and previous charge densities.

  Evaluating partitioned Hartree potential by multipole expansion.
  | Analytical far-field extrapolation by fixed multipoles:
  | Hartree multipole sum: apparent total charge =   0.687124E-05
  Summing up the Hartree potential.
  Time summed over all CPUs for potential: real work        0.031 s, elapsed        0.031 s
  | RMS charge density error from multipole expansion :   0.574125E-02

  Integrating Hamiltonian matrix: batch-based integration.
  Time summed over all CPUs for integration: real work        0.057 s, elapsed        0.061 s

  Updating Kohn-Sham eigenvalues, eigenvectors, occupation numbers, and Fermi level.
  Solving generalized eigenproblem
  Solving real symmetric generalised eigenvalue problem by standard ScaLAPACK.
  Using Cholesky factor for transformation
  Using 1-stage real ELPA solver
  Solving real symmetric generalised eigenvalue problem by standard ScaLAPACK.
  Using Cholesky factor for transformation
  Using 1-stage real ELPA solver
  Determining occupation numbers for Kohn-Sham eigenstates.
  | Chemical potential (Fermi level) in eV                 : 0.68223225E+00
  | Error in electron count due to remaining E_F inaccuracy: 0.00000000E+00
  | Maximum occupation number of highest empty state:  0.00E+00

  Current spin moment of the entire structure :
  | N = N_up - N_down :    0.00
  | S                 :    0.00
  | J                 :    1.00

  Highest occupied state (VBM) at     -1.29111429 eV
  | Occupation number:      1.00000000
  | Spin channel:        2

  Lowest unoccupied state (CBM) at     2.73841477 eV
  | Occupation number:      0.00000000
  | Spin channel:        2

  Overall HOMO-LUMO gap:      4.02952906 eV.

  Total energy components:
  | Sum of eigenvalues            :          -0.09963639 Ha          -2.71124420 eV
  | XC energy correction          :          -1.30292845 Ha         -35.45448710 eV
  | XC potential correction       :           1.67981565 Ha          45.71010957 eV
  | Free-atom electrostatic energy:          -0.13422188 Ha          -3.65236315 eV
  | Hartree energy correction     :          -1.46792752 Ha         -39.94434016 eV
  | van der Waals energy corr.    :           0.00000000 Ha           0.00000000 eV
  | Entropy correction            :           0.00000000 Ha           0.00000000 eV
  | ---------------------------
  | Total energy                  :          -1.32489859 Ha         -36.05232505 eV
  | Total energy, T -> 0          :          -1.32489859 Ha         -36.05232505 eV  <-- do not rely on this value for anything but (periodic) metals
  | Electronic free energy        :          -1.32489859 Ha         -36.05232505 eV

  Derived energy quantities:
  | Kinetic energy                :           2.47798856 Ha          67.42949941 eV
  | Electrostatic energy          :          -2.49995870 Ha         -68.02733735 eV
  | Energy correction for multipole
  | error in Hartree potential    :          -0.00019458 Ha          -0.00529470 eV
  | Sum of eigenvalues per atom                           :          -1.35562210 eV
  | Total energy (T->0) per atom                          :         -18.02616252 eV  <-- do not rely on this value for anything but (periodic) metals
  | Electronic free energy per atom                       :         -18.02616252 eV

[...]
  | Change of sum of eigenvalues  : 0.6529E-04 eV
  | Change of total energy        : 0.6083E-10 eV

  End self-consistency iteration #    30       :  max(cpu_time)    wall_clock(cpu1)
  | Time for this iteration                    :        0.027 s           0.024 s
  | Charge density update                      :        0.009 s           0.005 s
  | Density mixing                             :        0.002 s           0.002 s
  | Hartree multipole update                   :        0.001 s           0.001 s
  | Hartree multipole summation                :        0.004 s           0.005 s
  | Integration                                :        0.009 s           0.009 s
  | Solution of K.-S. eqns.                    :        0.001 s           0.001 s
  | Total energy evaluation                    :        0.000 s           0.001 s
------------------------------------------------------------

------------------------------------------------------------
          Begin self-consistency iteration #   31

  Date     :  20220120, Time     :  152847.132
------------------------------------------------------------
  Evaluating new KS density.
  Integration grid: deviation in total charge (<rho> - N_e) =   0.000000E+00
  | <rho_up-rho_dn> = N_up-N_dn =     -0.0000; <|rho_up-rho_dn|> =      0.0000
  Pulay mixing of updated and previous charge densities.

  Evaluating partitioned Hartree potential by multipole expansion.
  | Analytical far-field extrapolation by fixed multipoles:
  | Hartree multipole sum: apparent total charge =   0.140690E-05
  Summing up the Hartree potential.
  Time summed over all CPUs for potential: real work        0.031 s, elapsed        0.031 s
  | RMS charge density error from multipole expansion :   0.183160E-02

  Integrating Hamiltonian matrix: batch-based integration.
  Time summed over all CPUs for integration: real work        0.067 s, elapsed        0.071 s

  Updating Kohn-Sham eigenvalues, eigenvectors, occupation numbers, and Fermi level.
  Solving generalized eigenproblem
  Solving real symmetric generalised eigenvalue problem by standard ScaLAPACK.
  Using Cholesky factor for transformation
  Using 1-stage real ELPA solver
  Solving real symmetric generalised eigenvalue problem by standard ScaLAPACK.
  Using Cholesky factor for transformation
  Using 1-stage real ELPA solver
  Determining occupation numbers for Kohn-Sham eigenstates.
  | Chemical potential (Fermi level) in eV                 : -.97720587E+01
  | Error in electron count due to remaining E_F inaccuracy: 0.00000000E+00
  | Maximum occupation number of highest empty state:  0.00E+00

  Current spin moment of the entire structure :
  | N = N_up - N_down :    0.00
  | S                 :    0.00
  | J                 :    1.00

  Highest occupied state (VBM) at    -11.44892161 eV
  | Occupation number:      1.00000000
  | Spin channel:        2

  Lowest unoccupied state (CBM) at     1.14180072 eV
  | Occupation number:      0.00000000
  | Spin channel:        1

  Overall HOMO-LUMO gap:     12.59072232 eV.

  Total energy components:
  | Sum of eigenvalues            :          -0.84148027 Ha         -22.89784331 eV
  | XC energy correction          :          -0.76119055 Ha         -20.71304874 eV
  | XC potential correction       :           0.97695105 Ha          26.58419059 eV
  | Free-atom electrostatic energy:          -0.13422188 Ha          -3.65236315 eV
  | Hartree energy correction     :          -0.36594547 Ha          -9.95788295 eV
  | van der Waals energy corr.    :           0.00000000 Ha           0.00000000 eV
  | Entropy correction            :           0.00000000 Ha           0.00000000 eV
  | ---------------------------
  | Total energy                  :          -1.12588713 Ha         -30.63694757 eV
  | Total energy, T -> 0          :          -1.12588713 Ha         -30.63694757 eV  <-- do not rely on this value for anything but (periodic) metals
  | Electronic free energy        :          -1.12588713 Ha         -30.63694757 eV

  Derived energy quantities:
  | Kinetic energy                :           1.37309786 Ha          37.36389389 eV
  | Electrostatic energy          :          -1.73779444 Ha         -47.28779272 eV
  | Energy correction for multipole
  | error in Hartree potential    :          -0.00000853 Ha          -0.00023223 eV
  | Sum of eigenvalues per atom                           :         -11.44892165 eV
  | Total energy (T->0) per atom                          :         -15.31847379 eV  <-- do not rely on this value for anything but (periodic) metals
  | Electronic free energy per atom                       :         -15.31847379 eV

  Self-consistency convergence accuracy:
  | Change of charge/spin density : 0.2150E-06 0.5322E-07
  | Change of sum of eigenvalues  : -.1383E-04 eV
  | Change of total energy        : -.4831E-10 eV

  End self-consistency iteration #    31       :  max(cpu_time)    wall_clock(cpu1)
  | Time for this iteration                    :        0.025 s           0.024 s
  | Charge density update                      :        0.006 s           0.005 s
  | Density mixing                             :        0.002 s           0.002 s
  | Hartree multipole update                   :        0.001 s           0.001 s
  | Hartree multipole summation                :        0.004 s           0.005 s
  | Integration                                :        0.009 s           0.009 s
  | Solution of K.-S. eqns.                    :        0.001 s           0.001 s
  | Total energy evaluation                    :        0.000 s           0.001 s
------------------------------------------------------------

------------------------------------------------------------
          Begin self-consistency iteration #   32

  Date     :  20220120, Time     :  152847.159
------------------------------------------------------------
  Evaluating new KS density.
  Integration grid: deviation in total charge (<rho> - N_e) =   8.881784E-15
  | <rho_up-rho_dn> = N_up-N_dn =     -0.0000; <|rho_up-rho_dn|> =      0.0000
  Pulay mixing of updated and previous charge densities.

  Evaluating partitioned Hartree potential by multipole expansion.
  | Analytical far-field extrapolation by fixed multipoles:
  | Hartree multipole sum: apparent total charge =   0.140688E-05
  Summing up the Hartree potential.
  Time summed over all CPUs for potential: real work        0.031 s, elapsed        0.031 s
  | RMS charge density error from multipole expansion :   0.183160E-02

  Integrating Hamiltonian matrix: batch-based integration.
  Time summed over all CPUs for integration: real work        0.067 s, elapsed        0.071 s

  Updating Kohn-Sham eigenvalues, eigenvectors, occupation numbers, and Fermi level.
  Solving generalized eigenproblem
  Solving real symmetric generalised eigenvalue problem by standard ScaLAPACK.
  Using Cholesky factor for transformation
  Using 1-stage real ELPA solver
  Solving real symmetric generalised eigenvalue problem by standard ScaLAPACK.
  Using Cholesky factor for transformation
  Using 1-stage real ELPA solver
  Determining occupation numbers for Kohn-Sham eigenstates.
  | Chemical potential (Fermi level) in eV                 : -.97720277E+01
  | Error in electron count due to remaining E_F inaccuracy: 0.00000000E+00
  | Maximum occupation number of highest empty state:  0.00E+00

  Current spin moment of the entire structure :
  | N = N_up - N_down :    0.00
  | S                 :    0.00
  | J                 :    1.00

  Highest occupied state (VBM) at    -11.44892203 eV
  | Occupation number:      1.00000000
  | Spin channel:        1

  Lowest unoccupied state (CBM) at     1.14181003 eV
  | Occupation number:      0.00000000
  | Spin channel:        2

  Overall HOMO-LUMO gap:     12.59073205 eV.

  Total energy components:
  | Sum of eigenvalues            :          -0.84148030 Ha         -22.89784407 eV
  | XC energy correction          :          -0.76119054 Ha         -20.71304840 eV
  | XC potential correction       :           0.97695103 Ha          26.58419016 eV
  | Free-atom electrostatic energy:          -0.13422188 Ha          -3.65236315 eV
  | Hartree energy correction     :          -0.36594544 Ha          -9.95788211 eV
  | van der Waals energy corr.    :           0.00000000 Ha           0.00000000 eV
  | Entropy correction            :           0.00000000 Ha           0.00000000 eV
  | ---------------------------
  | Total energy                  :          -1.12588713 Ha         -30.63694757 eV
  | Total energy, T -> 0          :          -1.12588713 Ha         -30.63694757 eV  <-- do not rely on this value for anything but (periodic) metals
  | Electronic free energy        :          -1.12588713 Ha         -30.63694757 eV

  Derived energy quantities:
  | Kinetic energy                :           1.37309783 Ha          37.36389303 eV
  | Electrostatic energy          :          -1.73779442 Ha         -47.28779221 eV
  | Energy correction for multipole
  | error in Hartree potential    :          -0.00000853 Ha          -0.00023223 eV
  | Sum of eigenvalues per atom                           :         -11.44892203 eV
  | Total energy (T->0) per atom                          :         -15.31847379 eV  <-- do not rely on this value for anything but (periodic) metals
  | Electronic free energy per atom                       :         -15.31847379 eV

  Self-consistency convergence accuracy:
  | Change of charge/spin density : 0.1804E-07 0.2720E-07
  | Change of sum of eigenvalues  : -.7602E-06 eV
  | Change of total energy        : -.1243E-10 eV

  Writing Kohn-Sham eigenvalues.

  Spin-up eigenvalues:

  State    Occupation    Eigenvalue [Ha]    Eigenvalue [eV]
      1       1.00000          -0.420740          -11.44892
      2       0.00000           0.041961            1.14181
      3       0.00000           0.045817            1.24674
      4       0.00000           0.199906            5.43972
      5       0.00000           0.336151            9.14714
      6       0.00000           0.336151            9.14714
      7       0.00000           0.354207            9.63846
      8       0.00000           0.646780           17.59978
      9       0.00000           0.793281           21.58628
     10       0.00000           0.793281           21.58628
     11       0.00000           0.811748           22.08879

  Spin-down eigenvalues:

  State    Occupation    Eigenvalue [Ha]    Eigenvalue [eV]
      1       1.00000          -0.420740          -11.44892
      2       0.00000           0.041961            1.14181
      3       0.00000           0.045817            1.24674
      4       0.00000           0.199906            5.43972
      5       0.00000           0.336151            9.14714
      6       0.00000           0.336151            9.14714
      7       0.00000           0.354207            9.63845
      8       0.00000           0.646780           17.59978
      9       0.00000           0.793281           21.58628
     10       0.00000           0.793281           21.58628
     11       0.00000           0.811748           22.08879

  Current spin moment of the entire structure :
  | N = N_up - N_down :    0.00
  | S                 :    0.00
  | J                 :    1.00

  Highest occupied state (VBM) at    -11.44892203 eV
  | Occupation number:      1.00000000
  | Spin channel:        1

  Lowest unoccupied state (CBM) at     1.14181003 eV
  | Occupation number:      0.00000000
  | Spin channel:        2

  Overall HOMO-LUMO gap:     12.59073205 eV.

  Self-consistency cycle converged.

  End self-consistency iteration #    32       :  max(cpu_time)    wall_clock(cpu1)
  | Time for this iteration                    :        0.025 s           0.025 s
  | Charge density update                      :        0.006 s           0.005 s
  | Density mixing                             :        0.002 s           0.002 s
  | Hartree multipole update                   :        0.001 s           0.001 s
  | Hartree multipole summation                :        0.004 s           0.005 s
  | Integration                                :        0.009 s           0.009 s
  | Solution of K.-S. eqns.                    :        0.001 s           0.001 s
  | Total energy evaluation                    :        0.000 s           0.001 s
------------------------------------------------------------
  Obtaining max. number of non-zero basis functions in each batch .
  Evaluating KS electron density on previously omitted grid points.
  Evaluating non-empirical van der Waals correction (Tkatchenko/Scheffler 2009).
  Performing Hirshfeld analysis of fragment charges and moments.
  ----------------------------------------------------------------------
  | Atom     1: H
  |   Hirshfeld charge        :     -0.00000045
  |   Free atom volume        :     10.31539447
  |   Hirshfeld volume        :      4.35028795
  |   Hirshfeld spin moment   :     -0.00000000
  |   Hirshfeld dipole vector :      0.00000000      -0.00000000      -0.06901659
  |   Hirshfeld dipole moment :      0.06901659
  |   Hirshfeld second moments:      0.14988822      -0.00000000       0.00000000
  |                                 -0.00000000       0.14988822       0.00000000
  |                                  0.00000000       0.00000000       0.14616294
  ----------------------------------------------------------------------
  | Atom     2: H
  |   Hirshfeld charge        :     -0.00000045
  |   Free atom volume        :     10.31539447
  |   Hirshfeld volume        :      4.35028795
  |   Hirshfeld spin moment   :     -0.00000000
  |   Hirshfeld dipole vector :      0.00000000      -0.00000000       0.06901659
  |   Hirshfeld dipole moment :      0.06901659
  |   Hirshfeld second moments:      0.14988822      -0.00000000       0.00000000
  |                                 -0.00000000       0.14988822       0.00000000
  |                                  0.00000000       0.00000000       0.14616294
  ----------------------------------------------------------------------


  Total energy components:
  | Sum of eigenvalues            :          -0.84148030 Ha         -22.89784407 eV
  | XC energy correction          :          -0.76119054 Ha         -20.71304840 eV
  | XC potential correction       :           0.97695103 Ha          26.58419016 eV
  | Free-atom electrostatic energy:          -0.13422188 Ha          -3.65236315 eV
  | Hartree energy correction     :          -0.36594544 Ha          -9.95788211 eV
  | van der Waals energy corr.    :          -0.00000022 Ha          -0.00000598 eV
  | Entropy correction            :           0.00000000 Ha           0.00000000 eV
  | ---------------------------
  | Total energy                  :          -1.12588735 Ha         -30.63695356 eV
  | Total energy, T -> 0          :          -1.12588735 Ha         -30.63695356 eV  <-- do not rely on this value for anything but (periodic) metals
  | Electronic free energy        :          -1.12588735 Ha         -30.63695356 eV

  Derived energy quantities:
  | Kinetic energy                :           1.37309783 Ha          37.36389303 eV
  | Electrostatic energy          :          -1.73779442 Ha         -47.28779221 eV
  | Energy correction for multipole
  | error in Hartree potential    :          -0.00000853 Ha          -0.00023223 eV
  | Sum of eigenvalues per atom                           :         -11.44892203 eV
  | Total energy (T->0) per atom                          :         -15.31847678 eV  <-- do not rely on this value for anything but (periodic) metals
  | Electronic free energy per atom                       :         -15.31847678 eV
  Timings for VdW correction (Tkatchenko-Scheffler 2009 or later):
  | CPU time:        0.003 s, Wall clock time:        0.002 s.

  Energy and forces in a compact form:
  | Total energy uncorrected      :         -0.306369535551968E+02 eV
  | Total energy corrected        :         -0.306369535551968E+02 eV  <-- do not rely on this value for anything but (periodic) metals
  | Electronic free energy        :         -0.306369535551968E+02 eV

  ------------------------------------ 
  Start decomposition of the XC Energy 
  ------------------------------------ 
  Hartree-Fock part   :          0.000000000 Ha              0.000000000 eV
  ------------------------------------ 
  X Energy            :         -0.717543404 Ha            -19.525349452 eV
  C Energy GGA        :         -0.043647134 Ha             -1.187698946 eV
  Total XC Energy     :         -0.761190538 Ha            -20.713048398 eV
  LDA X and C from self-consistent density 
  X Energy LDA        :         -0.628250291 Ha            -17.095560235 eV
  C Energy LDA        :         -0.098524186 Ha             -2.680979505 eV
  ------------------------------------ 
  End decomposition of the XC Energy 
  ------------------------------------ 

------------------------------------------------------------------------------
  Final output of selected total energy values:

  The following output summarizes some interesting total energy values
  at the end of a run (AFTER all relaxation, molecular dynamics, etc.).

  | Total energy of the DFT / Hartree-Fock s.c.f. calculation      :            -30.636953555 eV
  | Final zero-broadening corrected energy (caution - metals only) :            -30.636953555 eV
  | For reference only, the value of 1 Hartree used in FHI-aims is :             27.211384500 eV

  Before relying on these values, please be sure to understand exactly which
  total energy value is referred to by a given number. Different objects may
  all carry the same name 'total energy'. Definitions:

  Total energy of the DFT / Hartree-Fock s.c.f. calculation:
  | Note that this energy does not include ANY quantities calculated after the
  | s.c.f. cycle, in particular not ANY RPA, MP2, etc. many-body perturbation terms.

  Final zero-broadening corrected energy:
  | For metallic systems only, a broadening of the occupation numbers at the Fermi
  | level can be extrapolated back to zero broadening by an electron-gas inspired
  | formula. For all systems that are not real metals, this value can be
  | meaningless and should be avoided.

------------------------------------------------------------------------------

------------------------------------------------------------
          Leaving FHI-aims.
          Date     :  20220120, Time     :  152847.194

          Computational steps:
          | Number of self-consistency cycles          :           32

          Detailed time accounting                     :  max(cpu_time)    wall_clock(cpu1)
          | Total time                                 :        0.957 s           1.054 s
          | Preparation time                           :        0.070 s           0.070 s
          | Grid partitioning                          :        0.006 s           0.007 s
          | Preloading free-atom quantities on grid    :        0.003 s           0.003 s
          | Free-atom superposition energy             :        0.002 s           0.002 s
          | Total time for integrations                :        0.289 s           0.289 s
          | Total time for solution of K.-S. equations :        0.046 s           0.046 s
          | Total time for density update              :        0.211 s           0.173 s
          | Total time for mixing                      :        0.051 s           0.054 s
          | Total time for Hartree multipole update    :        0.040 s           0.040 s
          | Total time for Hartree multipole sum       :        0.135 s           0.142 s
          | Total time for total energy evaluation     :        0.005 s           0.018 s
          | Total time for scaled ZORA corrections     :        0.000 s           0.000 s
          | Total time for vdW correction              :        0.003 s           0.002 s

          Have a nice day.
------------------------------------------------------------
