  MPI-parallelism will be employed.
------------------------------------------------------------
          Invoking FHI-aims ...
          Version 052014
          Git rev. (modified): 096c982 Merge branch master of fhiaims:/pub/localo[...]
          Compiled on 2016/12/16 at 15:22:01 on host login02.hpc.iitd.ac.in.

          When using FHI-aims, please cite the following reference:

          Volker Blum, Ralf Gehrke, Felix Hanke, Paula Havu,
          Ville Havu, Xinguo Ren, Karsten Reuter, and Matthias Scheffler,
          'Ab Initio Molecular Simulations with Numeric Atom-Centered Orbitals: FHI-aims',
          Computer Physics Communications 180, 2175-2196 (2009)

          For any questions about FHI-aims, please visit the aimsclub website
          with its forums and wiki. Contributions to both the forums and the
          wiki are warmly encouraged - they are for you, and everyone is welcome there.

------------------------------------------------------------

  Date     :  20220120, Time     :  152450.183
  Time zero on CPU 1             :   0.150900000000000E-01  s.
  Internal wall clock time zero  :           411924290.183  s.

  Using        8 parallel tasks.
  Task        0 on host csky019 reporting.
  Task        1 on host csky019 reporting.
  Task        2 on host csky019 reporting.
  Task        3 on host csky019 reporting.
  Task        4 on host csky019 reporting.
  Task        5 on host csky019 reporting.
  Task        6 on host csky019 reporting.
  Task        7 on host csky019 reporting.

  Performing system and environment tests:
  | Environment variable OMP_NUM_THREADS correctly set to 1.
  | Stacksize not measured: no C compiler
  | Checking for scalapack...
  | Testing pdtran()...
  | All pdtran() tests passed.

  Obtaining array dimensions for all initial allocations:
  
  -----------------------------------------------------------------------
  Parsing control.in (first pass over file, find array dimensions only).
  The contents of control.in will be repeated verbatim below
  unless switched off by setting 'verbatim_writeout .false.' .
  in the first line of control.in .
  -----------------------------------------------------------------------
  
    xc               pbe
    spin             collinear
    default_initial_moment hund
    relativistic     atomic_zora scalar 1e-9
    occupation_type  gaussian 0.001
    charge        0
    vdw_correction_hirshfeld
    KS_method        scalapack_fast
    mixer            pulay
    charge_mix_param  0.4
    spin_mix_param    0.6
    sc_accuracy_rho  1E-4
    sc_accuracy_eev  1E-5
    sc_accuracy_etot 1E-5
    sc_iter_limit    100
    empty_states     10
  ################################################################################
  #
  #  FHI-aims code project
  # Volker Blum, Fritz Haber Institute Berlin, 2009
  #
  #  Suggested "tight" defaults for H atom (to be pasted into control.in file)
  #
  ################################################################################
    species        H
  #     global species definitions
      nucleus             1
      mass                1.00794
  #
      l_hartree           6
  #
      cut_pot             4.0  2.0  1.0
      basis_dep_cutoff    1e-4
  #
      radial_base         24 7.0
      radial_multiplier   2
      angular_grids       specified
        division   0.1930   50
        division   0.3175  110
        division   0.4293  194
        division   0.5066  302
        division   0.5626  434
  #      division   0.5922  590
  #      division   0.6227  974
  #      division   0.6868 1202
  #      outer_grid  770
        outer_grid  434
  ################################################################################
  #
  #  Definition of "minimal" basis
  #
  ################################################################################
  #     valence basis states
      valence      1  s   1.
  #     ion occupancy
      ion_occ      1  s   0.5
  ################################################################################
  #
  #  Suggested additional basis functions. For production calculations,
  #  uncomment them one after another (the most important basis functions are
  #  listed first).
  #
  #  Basis constructed for dimers: 0.5 A, 0.7 A, 1.0 A, 1.5 A, 2.5 A
  #
  ################################################################################
  #  "First tier" - improvements: -1014.90 meV to -62.69 meV
       hydro 2 s 2.1
       hydro 2 p 3.5
  #  "Second tier" - improvements: -12.89 meV to -1.83 meV
       hydro 1 s 0.85
       hydro 2 p 3.7
       hydro 2 s 1.2
       hydro 3 d 7
  #  "Third tier" - improvements: -0.25 meV to -0.12 meV
  #     hydro 4 f 11.2
  #     hydro 3 p 4.8
  #     hydro 4 d 9
  #     hydro 3 s 3.2
  ################################################################################
  #
  # For methods that use the localized form of the "resolution of identity" for
  # the two-electron Coulomb operator (RI_method LVL), particularly Hartree-Fock and
  # hybrid density functional calculations, the highest accuracy can be obtained by
  # uncommenting the line beginning with "for_aux"  below, thus adding an extra g radial
  # function to the construction of the product basis set for the expansion.
  # See Ref. New J. Phys. 17, 093020 (2015) for more information, particularly Figs. 1 and 6.
  #
  ################################################################################
  #
  # for_aux hydro 5 g 6.0
  
  -----------------------------------------------------------------------
  Completed first pass over input file control.in .
  -----------------------------------------------------------------------
  
  
  -----------------------------------------------------------------------
  Parsing geometry.in (first pass over file, find array dimensions only).
  The contents of geometry.in will be repeated verbatim below
  unless switched off by setting 'verbatim_writeout .false.' .
  in the first line of geometry.in .
  -----------------------------------------------------------------------
  
  atom 0 0 0 H
  atom 0 0 0.82 H
  
  -----------------------------------------------------------------------
  Completed first pass over input file geometry.in .
  -----------------------------------------------------------------------
  

  Basic array size parameters:
  | Number of species                 :        1
  | Number of atoms                   :        2
  | Max. basis fn. angular momentum   :        2
  | Max. atomic/ionic basis occupied n:        1
  | Max. number of basis fn. types    :        2
  | Max. radial fns per species/type  :        6
  | Max. logarithmic grid size        :     1131
  | Max. radial integration grid size :       49
  | Max. angular integration grid size:      434
  | Max. angular grid division number :        8
  | Radial grid for Hartree potential :     1131
  | Number of spin channels           :        2

------------------------------------------------------------
          Reading file control.in.
------------------------------------------------------------
  XC: Using PBE gradient-corrected functionals.
  Spin treatment: Spin density functional theory - collinear spins.
  Initial spin moment per atom set according to Hund's rules.
  Scalar relativistic treatment of kinetic energy: on-site free-atom approximation to ZORA.
  Occupation type: Gaussian broadening, width =   0.100000E-02 eV.
  Charge =   0.000000E+00: Neutral system requested explicitly.
  Using non-empirical van der Waals correction (Hirshfeld partitioning):
  Kohn-Sham eigenvalues and eigenfunctions calculated by the ELPA eigensolver library.
  Using pulay charge density mixing.
  Charge density mixing - mixing parameter:     0.4000
  Spin density mixing - mixing parameter:     0.6000
  Convergence accuracy of self-consistent charge density: 0.1000E-03
  Convergence accuracy of sum of eigenvalues: 0.1000E-04
  Convergence accuracy of total energy: 0.1000E-04
  Maximum number of s.-c. iterations  :   100
  Number of empty states per atom:       10
 
  Reading configuration options for species H                   .
  | Found nuclear charge :   1.0000
  | Found atomic mass :    1.00794000000000      amu
  | Found l_max for Hartree potential  :   6
  | Found cutoff potl. onset [A], width [A], scale factor :    4.00000    2.00000    1.00000
  | Threshold for basis-dependent cutoff potential is   0.100000E-03
  | Found data for basic radial integration grid :    24 points, outermost radius =    7.000 A
  | Found multiplier for basic radial grid :   2
  | Found angular grid specification: user-specified.
  | Specified grid contains     6 separate shells.
  | Check grid settings after all constraints further below.
  | Found free-atom valence shell :  1 s   1.000
  | No ionic wave fns used. Skipping ion_occ.
  | Found hydrogenic basis function :  2 s   2.100
  | Found hydrogenic basis function :  2 p   3.500
  | Found hydrogenic basis function :  1 s   0.850
  | Found hydrogenic basis function :  2 p   3.700
  | Found hydrogenic basis function :  2 s   1.200
  | Found hydrogenic basis function :  3 d   7.000
  Species H                   : Missing cutoff potential type.
  Defaulting to exp(1/x)/(1-x)^2 type cutoff potential.
  Species H : No 'logarithmic' tag. Using default grid for free atom:
  | Default logarithmic grid data [bohr] : 0.1000E-03 0.1000E+03 0.1012E+01
  Species H : On-site basis accuracy parameter (for Gram-Schmidt orthonormalisation) not specified.
  Using default value basis_acc =  0.1000000E-03.
  Species H                   : Using default innermost maximum threshold i_radial=  2 for radial functions.
  Species H                   : Default cutoff onset for free atom density etc. : 0.40000000E+01 AA.
  Species H                   : Basic radial grid will be enhanced according to radial_multiplier =   2, to contain    49 grid points.
 
  Finished reading input file 'control.in'. Consistency checks are next.
 
  Target number of points in a grid batch is not set. Defaulting to  100
  Method for grid partitioning is not set. Defaulting to parallel hash+maxmin partitioning.
  Batch size limit is not set. Defaulting to    200
  By default, will store active basis functions for each batch.
  If in need of memory, prune_basis_once .false. can be used to disable this option.
  communication_type for Hartree potential was not specified.
  Defaulting to calc_hartree .
  Pulay mixer: Number of relevant iterations not set.
  Defaulting to    8 iterations.
  Pulay mixer: Number of initial linear mixing iterations not set.
  Defaulting to    0 iterations.
  Work space size for distributed Hartree potential not set.
  Defaulting to   0.200000E+03 MB.
  Algorithm-dependent basis array size parameters:
  | n_max_pulay                         :        8
  Calculation of forces was not defined in control.in. No forces will be calculated.
  Geometry relaxation not requested: no relaxation will be performed.
  No accuracy limit for integral partition fn. given. Defaulting to 0.1000E-14.
  No threshold value for u(r) in integrations given. Defaulting to 0.1000E-05.
  No accuracy for occupation numbers given. Defaulting to 0.1000E-07.
  No threshold value for occupation numbers given. Defaulting to 0.0000E+00.
  No accuracy for fermi level given. Defaulting to 0.1000E-19.
  Maximum # of iterations to find E_F not set. Defaulting to  200.
  Will not use alltoall communication since running on < 1024 CPUs.
  Threshold for basis singularities not set.
  Default threshold for basis singularities: 0.1000E-04
  partition_type (choice of integration weights) for integrals was not specified.
  | Using a version of the partition function of Stratmann and coworkers ('stratmann_smoother').
  | At each grid point, the set of atoms used to build the partition table is smoothly restricted to
  | only those atoms whose free-atom density would be non-zero at that grid point.
  Partitioning for Hartree potential was not defined. Using partition_type for integrals.
  | Adjusted default value of keyword multip_moments_threshold to:       0.10000000E-11
  | This value may affect high angular momentum components of the Hartree potential in periodic systems.
  No q(lm)/r^(l+1) cutoff set for long-range Hartree potential.
  | Using default value of  0.100000E-09 .
  | Verify using the multipole_threshold keyword.
  Defaulting to new monopole extrapolation.
  Density update method: automatic selection selected.
------------------------------------------------------------


------------------------------------------------------------
          Reading geometry description geometry.in.
------------------------------------------------------------
  Input structure read successfully.
  The structure contains        2 atoms,  and a total of          2.000 electrons.

  Input geometry:
  | No unit cell requested.
  | Atomic structure:
  |       Atom                x [A]            y [A]            z [A]
  |    1: Species H              0.000000         0.000000         0.000000
  |    2: Species H              0.000000         0.000000         0.820000
  |

  | The smallest distance between any two atoms is         0.82000000 AA.
  |
  | The first atom of this pair is atom number                      1 .
  | The second atom of this pair is atom number                     2 .

  Initial moments and charges:
  |  Atom   Moment         Charge        Species
  |     1  (Hund's rule)   0.000000E+00   H
  |     2  (Hund's rule)   0.000000E+00   H

  Structure-dependent array size parameters: 
  | Number of distinct atom types in initial rho :        1
  | Maximum number of distinct radial functions  :        7
  | Maximum number of basis functions            :       30
  | Number of Kohn-Sham states (occupied + empty):       11
------------------------------------------------------------

------------------------------------------------------------
          Preparing all fixed parts of the calculation.
------------------------------------------------------------
  Determining machine precision:
    2.225073858507201E-308
  Setting up grids for atomic and cluster calculations.

  Creating wave function, potential, and density for free atoms.

  Species: H

  List of occupied orbitals and eigenvalues:
    n    l              occ      energy [Ha]    energy [eV]
    1    0           1.0000        -0.238386        -6.4868

  Spin-polarized or charged system:
  Charge density initialized according to selected moments and charges.

  Creating spin-polarized density from free atoms.

  Species: H
  Charge:   0.000000
  applying Hund's rules ...

  List of occupied orbitals and eigenvalues:
    n    l      energy [Ha]    energy [eV]    occupation
  Spin-up
    1    0        -0.278991        -7.5917     1.00000000
  Spin-down
    1    0         0.090850         2.4721     0.00000000

  Creating fixed part of basis set: Ionic, confined, hydrogenic.
 
  H                    hydrogenic:
 
  List of hydrogenic basis orbitals: 
    n    l      effective z      eigenvalue [eV]  inner max. [A]     outer max. [A]     outer radius [A]   
    2    0         2.100000       -14.9965           0.193243           1.317208           5.373006
    2    1         3.500000       -41.6672           0.602369           0.602369           4.056063
    1    0         0.850000        -9.8292           0.624871           0.624871           5.373006
    2    1         3.700000       -46.5653           0.573622           0.573622           3.910002
    2    0         1.200000        -4.5995           0.334980           2.228188           5.505995
    3    2         7.000000       -74.0753           0.680699           0.680699           3.769201
 

  Adding cutoff potential to free-atom effective potential.
  Creating atomic-like basis functions for current effective potential.

  Species H                   :

  List of atomic basis orbitals and eigenvalues:
    n    l      energy [Ha]    energy [eV]    outer radius [A]
    1    0        -0.238386        -6.4868       5.373006

  Assembling full basis from fixed parts.
  | Species H :   atomic orbital   1 s accepted.
  | Species H :    hydro orbital   2 s accepted.
  | Species H :    hydro orbital   1 s accepted.
  | Species H :    hydro orbital   2 s accepted.
  | Species H :    hydro orbital   2 p accepted.
  | Species H :    hydro orbital   2 p accepted.
  | Species H :    hydro orbital   3 d accepted.
 
  Basis size parameters after reduction:
  | Total number of radial functions:        7
  | Total number of basis functions :       30
 
  Testing on-site integration grid accuracy.
  |  Species  Function  <phi|h_atom|phi> (log., in eV)  <phi|h_atom|phi> (rad., in eV)
           1        1                 -6.4870767962                 -6.4871688290
           1        2                 13.5032046589                 13.5028982997
           1        3                 32.8195184817                 32.8119941656
           1        4                 33.8513856511                 33.7670005767 ***
           1        5                 28.8544614965                 28.8544615203
           1        6                 59.6326952547                 59.6327656460
           1        7                 60.2719308513                 60.2719305949
 * Note: Onsite integrals marked "***" above are less accurate than
 * onsite_accuracy_threshold =    0.03000 eV. Usually, this is harmless.
 * When in doubt, tighten the "radial" and/or "radial_multiplier" flags to check.

  Preparing densities etc. for the partition functions (integrals / Hartree potential).

  Preparations completed.
  max(cpu_time)          :      0.097 s.
  Wall clock time (cpu1) :      0.098 s.
------------------------------------------------------------

------------------------------------------------------------
          Begin self-consistency loop: Initialization.

          Date     :  20220120, Time     :  152450.394
------------------------------------------------------------

  Initializing index lists of integration centers etc. from given atomic structure:
  | Number of centers in hartree potential         :         2
  | Number of centers in hartree multipole         :         2
  | Number of centers in electron density summation:         2
  | Number of centers in basis integrals           :         2
  | Number of centers in integrals                 :         2
  Using modified Scalapack Eigenvalue solver (ELPA)
  * Using 8 tasks for Scalapack Eigenvalue solver.
  Detailed listing of tasks and assigned k-points:
  (for non-periodic systems, the "k-point" denotes an internal label only)
   Task     0 k-point     1 on csky019
   Task     1 k-point     1 on csky019
   Task     2 k-point     1 on csky019
   Task     3 k-point     1 on csky019
   Task     4 k-point     1 on csky019
   Task     5 k-point     1 on csky019
   Task     6 k-point     1 on csky019
   Task     7 k-point     1 on csky019
  Tasks:     8 split into      4 X      2 BLACS grid
  Calculating blocksize based on n_basis =           30 max_nprow =            4 max_npcol =            2
  Scalapack blocksize set to:            4
  Required Scalapack workspace - INTEGER:            1 REAL:             1
  Partitioning the integration grid into batches with parallel hashing+maxmin method.
  | Number of batches:      444
  | Maximal batch size:     197
  | Minimal batch size:      49
  | Average batch size:      65.090
  | Standard deviation of batch sizes:      18.565

  Integration load balanced across     8 MPI tasks.
  Work distribution over tasks is as follows:
  Task     0 has       3646 integration points.
  Task     1 has       3588 integration points.
  Task     2 has       3619 integration points.
  Task     3 has       3588 integration points.
  Task     4 has       3681 integration points.
  Task     5 has       3588 integration points.
  Task     6 has       3611 integration points.
  Task     7 has       3579 integration points.
  Initializing partition tables, free-atom densities, potentials, etc. across the integration grid (initialize_grid_storage).
  | initialize_grid_storage: Actual outermost partition radius vs. multipole_radius_free
  | (-- VB: in principle, multipole_radius_free should be larger, hence this output)
  | Species        1: outer_partition_radius =              6.000000000000000 AA, multipole_radius_free =              6.071692442739658 AA.
  | Original list of interatomic distances with           2 x          2 entries is created.
  | Net number of integration points:    28900
  | of which are non-zero points    :    26734
  Obtaining max. number of non-zero basis functions in each batch (get_n_compute_maxes).
  | Maximal number of non-zero basis functions:       30 in task     0
  | Maximal number of non-zero basis functions:       30 in task     1
  | Maximal number of non-zero basis functions:       30 in task     2
  | Maximal number of non-zero basis functions:       30 in task     3
  | Maximal number of non-zero basis functions:       30 in task     4
  | Maximal number of non-zero basis functions:       30 in task     5
  | Maximal number of non-zero basis functions:       30 in task     6
  | Maximal number of non-zero basis functions:       30 in task     7
  Selecting the method for density update.
  Loop over occupied states selected for charge density update.
  Integrating Hamiltonian matrix: batch-based integration.
  Time summed over all CPUs for integration: real work        0.091 s, elapsed        0.102 s
  Integrating overlap matrix.
  Time summed over all CPUs for integration: real work        0.023 s, elapsed        0.031 s
  Deallocating overlap matrix.

  Updating Kohn-Sham eigenvalues, eigenvectors, occupation numbers, and Fermi level.
  Solving generalized eigenproblem
  Solving real symmetric generalised eigenvalue problem by standard ScaLAPACK.
  Transforming overlap matrix with ScaLAPACK and checking for singularities.
  : Overlap matrix is nonsingular, using Cholesky decomposition
  | Lowest eigenvalue:  0.399915E-03
  Factoring overlap matrix with Cholesky decomposition
  Using Cholesky factor for transformation
  Using 1-stage real ELPA solver
  Solving real symmetric generalised eigenvalue problem by standard ScaLAPACK.
  Using Cholesky factor for transformation
  Using 1-stage real ELPA solver
  Determining occupation numbers for Kohn-Sham eigenstates.
  | Chemical potential (Fermi level) in eV                 : -.96478662E+00
  | Error in electron count due to remaining E_F inaccuracy: 0.00000000E+00
  | Maximum occupation number of highest empty state:  0.00E+00

  Writing Kohn-Sham eigenvalues.

  Spin-up eigenvalues:

  State    Occupation    Eigenvalue [Ha]    Eigenvalue [eV]
      1       1.00000          -0.554269          -15.08243
      2       1.00000          -0.071434           -1.94382
      3       0.00000           0.011921            0.32440
      4       0.00000           0.099112            2.69697
      5       0.00000           0.213561            5.81130
      6       0.00000           0.213561            5.81130
      7       0.00000           0.308726            8.40087
      8       0.00000           0.444372           12.09198
      9       0.00000           0.634992           17.27902
     10       0.00000           0.659714           17.95174
     11       0.00000           0.659714           17.95174

  Spin-down eigenvalues:

  State    Occupation    Eigenvalue [Ha]    Eigenvalue [eV]
      1       0.00000           0.099334            2.70302
      2       0.00000           0.116211            3.16226
      3       0.00000           0.504512           13.72847
      4       0.00000           0.539402           14.67786
      5       0.00000           1.141195           31.05349
      6       0.00000           1.141195           31.05349
      7       0.00000           1.250616           34.03100
      8       0.00000           1.519646           41.35167
      9       0.00000           1.519646           41.35167
     10       0.00000           1.557803           42.38997
     11       0.00000           1.647573           44.83274

  Current spin moment of the entire structure :
  | N = N_up - N_down :    2.00
  | S                 :    1.00
  | J                 :    3.00

  Highest occupied state (VBM) at     -1.94381506 eV
  | Occupation number:      1.00000000
  | Spin channel:        1

  Lowest unoccupied state (CBM) at     0.32439690 eV
  | Occupation number:      0.00000000
  | Spin channel:        1

  Overall HOMO-LUMO gap:      2.26821195 eV.
  Calculating total energy contributions from superposition of free atom densities.

  Total energy components:
  | Sum of eigenvalues            :          -0.62570296 Ha         -17.02624387 eV
  | XC energy correction          :          -0.67799849 Ha         -18.44927752 eV
  | XC potential correction       :           0.87442199 Ha          23.79423292 eV
  | Free-atom electrostatic energy:          -0.39433087 Ha         -10.73028904 eV
  | Hartree energy correction     :           0.00000000 Ha           0.00000000 eV
  | van der Waals energy corr.    :           0.00000000 Ha           0.00000000 eV
  | Entropy correction            :           0.00000000 Ha           0.00000000 eV
  | ---------------------------
  | Total energy                  :          -0.82361033 Ha         -22.41157750 eV
  | Total energy, T -> 0          :          -0.82361033 Ha         -22.41157750 eV  <-- do not rely on this value for anything but (periodic) metals
  | Electronic free energy        :          -0.82361033 Ha         -22.41157750 eV

  Derived energy quantities:
  | Kinetic energy                :           1.16728791 Ha          31.76352003 eV
  | Electrostatic energy          :          -1.31289975 Ha         -35.72582001 eV
  | Energy correction for multipole
  | error in Hartree potential    :           0.00000000 Ha           0.00000000 eV
  | Sum of eigenvalues per atom                           :          -8.51312193 eV
  | Total energy (T->0) per atom                          :         -11.20578875 eV  <-- do not rely on this value for anything but (periodic) metals
  | Electronic free energy per atom                       :         -11.20578875 eV
  Initialize hartree_potential_storage
  Max. number of atoms included in rho_multipole:            2

  End scf initialization - timings             :  max(cpu_time)    wall_clock(cpu1)
  | Time for scf. initialization               :        0.050 s           0.051 s
  | Boundary condition initialization          :        0.000 s           0.000 s
  | Integration                                :        0.017 s           0.018 s
  | Solution of K.-S. eqns.                    :        0.009 s           0.009 s
  | Grid partitioning                          :        0.010 s           0.010 s
  | Preloading free-atom quantities on grid    :        0.004 s           0.004 s
  | Free-atom superposition energy             :        0.003 s           0.003 s
  | Total energy evaluation                    :        0.000 s           0.000 s
------------------------------------------------------------

------------------------------------------------------------
          Begin self-consistency iteration #    1

  Date     :  20220120, Time     :  152450.445
------------------------------------------------------------
  Evaluating new KS density.
  Integration grid: deviation in total charge (<rho> - N_e) =   2.477294E-07
  | <rho_up-rho_dn> = N_up-N_dn =      2.0000; <|rho_up-rho_dn|> =      2.0742
  Pulay mixing of updated and previous charge densities.

  Evaluating partitioned Hartree potential by multipole expansion.
  | Analytical far-field extrapolation by fixed multipoles:
  | Hartree multipole sum: apparent total charge =  -0.673762E-05
  Summing up the Hartree potential.
  Time summed over all CPUs for potential: real work        0.037 s, elapsed        0.041 s
  | RMS charge density error from multipole expansion :   0.692383E-03

  Integrating Hamiltonian matrix: batch-based integration.
  Time summed over all CPUs for integration: real work        0.073 s, elapsed        0.079 s

  Updating Kohn-Sham eigenvalues, eigenvectors, occupation numbers, and Fermi level.
  Solving generalized eigenproblem
  Solving real symmetric generalised eigenvalue problem by standard ScaLAPACK.
  Using Cholesky factor for transformation
  Using 1-stage real ELPA solver
  Solving real symmetric generalised eigenvalue problem by standard ScaLAPACK.
  Using Cholesky factor for transformation
  Using 1-stage real ELPA solver
  Determining occupation numbers for Kohn-Sham eigenstates.
  | Chemical potential (Fermi level) in eV                 : -.43281945E+01
  | Error in electron count due to remaining E_F inaccuracy: 0.00000000E+00
  | Maximum occupation number of highest empty state:  0.00E+00

  Writing Kohn-Sham eigenvalues.

  Spin-up eigenvalues:

  State    Occupation    Eigenvalue [Ha]    Eigenvalue [eV]
      1       1.00000          -0.428831          -11.66909
      2       0.00000           0.068935            1.87583
      3       0.00000           0.071770            1.95295
      4       0.00000           0.187991            5.11549
      5       0.00000           0.263246            7.16329
      6       0.00000           0.263246            7.16329
      7       0.00000           0.375604           10.22071
      8       0.00000           0.571541           15.55242
      9       0.00000           0.767936           20.89659
     10       0.00000           0.767936           20.89659
     11       0.00000           0.830720           22.60504

  Spin-down eigenvalues:

  State    Occupation    Eigenvalue [Ha]    Eigenvalue [eV]
      1       1.00000          -0.225233           -6.12890
      2       0.00000           0.091386            2.48673
      3       0.00000           0.091605            2.49269
      4       0.00000           0.252149            6.86132
      5       0.00000           0.371846           10.11843
      6       0.00000           0.371846           10.11843
      7       0.00000           0.447654           12.18129
      8       0.00000           0.686422           18.67850
      9       0.00000           0.857383           23.33058
     10       0.00000           0.857383           23.33058
     11       0.00000           0.872427           23.73994

  Current spin moment of the entire structure :
  | N = N_up - N_down :    0.00
  | S                 :    0.00
  | J                 :    1.00

  Highest occupied state (VBM) at     -6.12889527 eV
  | Occupation number:      1.00000000
  | Spin channel:        2

  Lowest unoccupied state (CBM) at     1.87582696 eV
  | Occupation number:      0.00000000
  | Spin channel:        1

  Overall HOMO-LUMO gap:      8.00472223 eV.

  Total energy components:
  | Sum of eigenvalues            :          -0.65406397 Ha         -17.79798631 eV
  | XC energy correction          :          -0.43738533 Ha         -11.90186051 eV
  | XC potential correction       :           0.56380801 Ha          15.34199649 eV
  | Free-atom electrostatic energy:          -0.39433087 Ha         -10.73028904 eV
  | Hartree energy correction     :          -0.00118759 Ha          -0.03231607 eV
  | van der Waals energy corr.    :           0.00000000 Ha           0.00000000 eV
  | Entropy correction            :           0.00000000 Ha           0.00000000 eV
  | ---------------------------
  | Total energy                  :          -0.92315977 Ha         -25.12045543 eV
  | Total energy, T -> 0          :          -0.92315977 Ha         -25.12045543 eV  <-- do not rely on this value for anything but (periodic) metals
  | Electronic free energy        :          -0.92315977 Ha         -25.12045543 eV

  Derived energy quantities:
  | Kinetic energy                :           0.88237046 Ha          24.01052176 eV
  | Electrostatic energy          :          -1.36814489 Ha         -37.22911668 eV
  | Energy correction for multipole
  | error in Hartree potential    :          -0.00016590 Ha          -0.00451450 eV
  | Sum of eigenvalues per atom                           :          -8.89899315 eV
  | Total energy (T->0) per atom                          :         -12.56022772 eV  <-- do not rely on this value for anything but (periodic) metals
  | Electronic free energy per atom                       :         -12.56022772 eV

  Self-consistency convergence accuracy:
  | Change of charge/spin density : 0.4627E-01 0.4627E-01
  | Change of sum of eigenvalues  : -.7717E+00 eV
  | Change of total energy        : -.2709E+01 eV

  End self-consistency iteration #     1       :  max(cpu_time)    wall_clock(cpu1)
  | Time for this iteration                    :        0.030 s           0.030 s
  | Charge density update                      :        0.007 s           0.007 s
  | Density mixing                             :        0.001 s           0.001 s
  | Hartree multipole update                   :        0.002 s           0.001 s
  | Hartree multipole summation                :        0.006 s           0.007 s
  | Integration                                :        0.010 s           0.010 s
  | Solution of K.-S. eqns.                    :        0.002 s           0.002 s
  | Total energy evaluation                    :        0.000 s           0.001 s
------------------------------------------------------------

------------------------------------------------------------
          Begin self-consistency iteration #    2

  Date     :  20220120, Time     :  152450.480
------------------------------------------------------------
  Evaluating new KS density.
  Integration grid: deviation in total charge (<rho> - N_e) =   1.486377E-07
  | <rho_up-rho_dn> = N_up-N_dn =     -2.0000; <|rho_up-rho_dn|> =      2.0000
  Pulay mixing of updated and previous charge densities.

  Evaluating partitioned Hartree potential by multipole expansion.
  | Analytical far-field extrapolation by fixed multipoles:
  | Hartree multipole sum: apparent total charge =  -0.664589E-05
  Summing up the Hartree potential.
  Time summed over all CPUs for potential: real work        0.036 s, elapsed        0.038 s
  | RMS charge density error from multipole expansion :   0.673488E-03

  Integrating Hamiltonian matrix: batch-based integration.
  Time summed over all CPUs for integration: real work        0.084 s, elapsed        0.103 s

  Updating Kohn-Sham eigenvalues, eigenvectors, occupation numbers, and Fermi level.
  Solving generalized eigenproblem
  Solving real symmetric generalised eigenvalue problem by standard ScaLAPACK.
  Using Cholesky factor for transformation
  Using 1-stage real ELPA solver
  Solving real symmetric generalised eigenvalue problem by standard ScaLAPACK.
  Using Cholesky factor for transformation
  Using 1-stage real ELPA solver
  Determining occupation numbers for Kohn-Sham eigenstates.
  | Chemical potential (Fermi level) in eV                 : -.63488246E+01
  | Error in electron count due to remaining E_F inaccuracy: 0.00000000E+00
  | Maximum occupation number of highest empty state:  0.00E+00

  Current spin moment of the entire structure :
  | N = N_up - N_down :    0.00
  | S                 :    0.00
  | J                 :    1.00

  Highest occupied state (VBM) at     -7.46606763 eV
  | Occupation number:      1.00000000
  | Spin channel:        2

  Lowest unoccupied state (CBM) at     0.93443086 eV
  | Occupation number:      0.00000000
  | Spin channel:        1

  Overall HOMO-LUMO gap:      8.40049849 eV.

  Total energy components:
  | Sum of eigenvalues            :          -0.79259380 Ha         -21.56757468 eV
  | XC energy correction          :          -0.55860678 Ha         -15.20046395 eV
  | XC potential correction       :           0.72173224 Ha          19.63933359 eV
  | Free-atom electrostatic energy:          -0.39433087 Ha         -10.73028904 eV
  | Hartree energy correction     :          -0.00364528 Ha          -0.09919316 eV
  | van der Waals energy corr.    :           0.00000000 Ha           0.00000000 eV
  | Entropy correction            :           0.00000000 Ha           0.00000000 eV
  | ---------------------------
  | Total energy                  :          -1.02744450 Ha         -27.95818724 eV
  | Total energy, T -> 0          :          -1.02744450 Ha         -27.95818724 eV  <-- do not rely on this value for anything but (periodic) metals
  | Electronic free energy        :          -1.02744450 Ha         -27.95818724 eV

  Derived energy quantities:
  | Kinetic energy                :           0.90138414 Ha          24.52791041 eV
  | Electrostatic energy          :          -1.37022185 Ha         -37.28563369 eV
  | Energy correction for multipole
  | error in Hartree potential    :          -0.00016259 Ha          -0.00442443 eV
  | Sum of eigenvalues per atom                           :         -10.78378734 eV
  | Total energy (T->0) per atom                          :         -13.97909362 eV  <-- do not rely on this value for anything but (periodic) metals
  | Electronic free energy per atom                       :         -13.97909362 eV

  Self-consistency convergence accuracy:
  | Change of charge/spin density : 0.1135E+00 0.2788E+00
  | Change of sum of eigenvalues  : -.3770E+01 eV
  | Change of total energy        : -.2838E+01 eV

  End self-consistency iteration #     2       :  max(cpu_time)    wall_clock(cpu1)
  | Time for this iteration                    :        0.031 s           0.031 s
  | Charge density update                      :        0.007 s           0.007 s
  | Density mixing                             :        0.001 s           0.001 s
  | Hartree multipole update                   :        0.002 s           0.002 s
  | Hartree multipole summation                :        0.005 s           0.005 s
  | Integration                                :        0.013 s           0.013 s
  | Solution of K.-S. eqns.                    :        0.001 s           0.002 s
  | Total energy evaluation                    :        0.000 s           0.001 s
------------------------------------------------------------

------------------------------------------------------------
          Begin self-consistency iteration #    3

  Date     :  20220120, Time     :  152450.512
------------------------------------------------------------
  Evaluating new KS density.
  Integration grid: deviation in total charge (<rho> - N_e) =   1.465413E-07
  | <rho_up-rho_dn> = N_up-N_dn =     -1.9577; <|rho_up-rho_dn|> =      1.9577
  Pulay mixing of updated and previous charge densities.

  Evaluating partitioned Hartree potential by multipole expansion.
  | Analytical far-field extrapolation by fixed multipoles:
  | Hartree multipole sum: apparent total charge =  -0.667893E-05
  Summing up the Hartree potential.
  Time summed over all CPUs for potential: real work        0.035 s, elapsed        0.042 s
  | RMS charge density error from multipole expansion :   0.659803E-03

  Integrating Hamiltonian matrix: batch-based integration.
  Time summed over all CPUs for integration: real work        0.073 s, elapsed        0.087 s

  Updating Kohn-Sham eigenvalues, eigenvectors, occupation numbers, and Fermi level.
  Solving generalized eigenproblem
  Solving real symmetric generalised eigenvalue problem by standard ScaLAPACK.
  Using Cholesky factor for transformation
  Using 1-stage real ELPA solver
  Solving real symmetric generalised eigenvalue problem by standard ScaLAPACK.
  Using Cholesky factor for transformation
  Using 1-stage real ELPA solver
  Determining occupation numbers for Kohn-Sham eigenstates.
  | Chemical potential (Fermi level) in eV                 : -.63508629E+01
  | Error in electron count due to remaining E_F inaccuracy: 0.00000000E+00
  | Maximum occupation number of highest empty state:  0.00E+00

  Current spin moment of the entire structure :
  | N = N_up - N_down :    0.00
  | S                 :    0.00
  | J                 :    1.00

  Highest occupied state (VBM) at     -7.24511657 eV
  | Occupation number:      1.00000000
  | Spin channel:        2

  Lowest unoccupied state (CBM) at     0.94976863 eV
  | Occupation number:      0.00000000
  | Spin channel:        1

  Overall HOMO-LUMO gap:      8.19488520 eV.

  Total energy components:
  | Sum of eigenvalues            :          -0.78505942 Ha         -21.36255369 eV
  | XC energy correction          :          -0.55543742 Ha         -15.11422109 eV
  | XC potential correction       :           0.71764157 Ha          19.52802057 eV
  | Free-atom electrostatic energy:          -0.39433087 Ha         -10.73028904 eV
  | Hartree energy correction     :          -0.00094490 Ha          -0.02571214 eV
  | van der Waals energy corr.    :           0.00000000 Ha           0.00000000 eV
  | Entropy correction            :           0.00000000 Ha           0.00000000 eV
  | ---------------------------
  | Total energy                  :          -1.01813105 Ha         -27.70475539 eV
  | Total energy, T -> 0          :          -1.01813105 Ha         -27.70475539 eV  <-- do not rely on this value for anything but (periodic) metals
  | Electronic free energy        :          -1.01813105 Ha         -27.70475539 eV

  Derived energy quantities:
  | Kinetic energy                :           0.90205025 Ha          24.54603630 eV
  | Electrostatic energy          :          -1.36474388 Ha         -37.13657059 eV
  | Energy correction for multipole
  | error in Hartree potential    :          -0.00015812 Ha          -0.00430277 eV
  | Sum of eigenvalues per atom                           :         -10.68127685 eV
  | Total energy (T->0) per atom                          :         -13.85237769 eV  <-- do not rely on this value for anything but (periodic) metals
  | Electronic free energy per atom                       :         -13.85237769 eV

  Self-consistency convergence accuracy:
  | Change of charge/spin density : 0.1358E+00 0.2659E+00
  | Change of sum of eigenvalues  : 0.2050E+00 eV
  | Change of total energy        : 0.2534E+00 eV

  End self-consistency iteration #     3       :  max(cpu_time)    wall_clock(cpu1)
  | Time for this iteration                    :        0.034 s           0.034 s
  | Charge density update                      :        0.008 s           0.008 s
  | Density mixing                             :        0.002 s           0.002 s
  | Hartree multipole update                   :        0.002 s           0.003 s
  | Hartree multipole summation                :        0.006 s           0.006 s
  | Integration                                :        0.011 s           0.011 s
  | Solution of K.-S. eqns.                    :        0.002 s           0.003 s
  | Total energy evaluation                    :        0.000 s           0.001 s
------------------------------------------------------------

------------------------------------------------------------
          Begin self-consistency iteration #    4

  Date     :  20220120, Time     :  152450.550
------------------------------------------------------------
  Evaluating new KS density.
  Integration grid: deviation in total charge (<rho> - N_e) =   1.468034E-07
  | <rho_up-rho_dn> = N_up-N_dn =     -1.9622; <|rho_up-rho_dn|> =      1.9622
  Pulay mixing of updated and previous charge densities.

  Evaluating partitioned Hartree potential by multipole expansion.
  | Analytical far-field extrapolation by fixed multipoles:
  | Hartree multipole sum: apparent total charge =  -0.667935E-05
  Summing up the Hartree potential.
  Time summed over all CPUs for potential: real work        0.035 s, elapsed        0.042 s
  | RMS charge density error from multipole expansion :   0.615184E-03

  Integrating Hamiltonian matrix: batch-based integration.
  Time summed over all CPUs for integration: real work        0.073 s, elapsed        0.085 s

  Updating Kohn-Sham eigenvalues, eigenvectors, occupation numbers, and Fermi level.
  Solving generalized eigenproblem
  Solving real symmetric generalised eigenvalue problem by standard ScaLAPACK.
  Using Cholesky factor for transformation
  Using 1-stage real ELPA solver
  Solving real symmetric generalised eigenvalue problem by standard ScaLAPACK.
  Using Cholesky factor for transformation
  Using 1-stage real ELPA solver
  Determining occupation numbers for Kohn-Sham eigenstates.
  | Chemical potential (Fermi level) in eV                 : -.41227444E+01
  | Error in electron count due to remaining E_F inaccuracy: 0.00000000E+00
  | Maximum occupation number of highest empty state:  0.00E+00

  Current spin moment of the entire structure :
  | N = N_up - N_down :    0.00
  | S                 :    0.00
  | J                 :    1.00

  Highest occupied state (VBM) at     -6.41529810 eV
  | Occupation number:      1.00000000
  | Spin channel:        2

  Lowest unoccupied state (CBM) at     1.46255833 eV
  | Occupation number:      0.00000000
  | Spin channel:        1

  Overall HOMO-LUMO gap:      7.87785643 eV.

  Total energy components:
  | Sum of eigenvalues            :          -0.64994939 Ha         -17.68602289 eV
  | XC energy correction          :          -0.44099315 Ha         -12.00003414 eV
  | XC potential correction       :           0.56714675 Ha          15.43284818 eV
  | Free-atom electrostatic energy:          -0.39433087 Ha         -10.73028904 eV
  | Hartree energy correction     :           0.00377841 Ha           0.10281576 eV
  | van der Waals energy corr.    :           0.00000000 Ha           0.00000000 eV
  | Entropy correction            :           0.00000000 Ha           0.00000000 eV
  | ---------------------------
  | Total energy                  :          -0.91434826 Ha         -24.88068212 eV
  | Total energy, T -> 0          :          -0.91434826 Ha         -24.88068212 eV  <-- do not rely on this value for anything but (periodic) metals
  | Electronic free energy        :          -0.91434826 Ha         -24.88068212 eV

  Derived energy quantities:
  | Kinetic energy                :           0.88111773 Ha          23.97643339 eV
  | Electrostatic energy          :          -1.35447284 Ha         -36.85708137 eV
  | Energy correction for multipole
  | error in Hartree potential    :          -0.00014543 Ha          -0.00395735 eV
  | Sum of eigenvalues per atom                           :          -8.84301144 eV
  | Total energy (T->0) per atom                          :         -12.44034106 eV  <-- do not rely on this value for anything but (periodic) metals
  | Electronic free energy per atom                       :         -12.44034106 eV

  Self-consistency convergence accuracy:
  | Change of charge/spin density : 0.1344E+00 0.2631E+00
  | Change of sum of eigenvalues  : 0.3677E+01 eV
  | Change of total energy        : 0.2824E+01 eV

  End self-consistency iteration #     4       :  max(cpu_time)    wall_clock(cpu1)
  | Time for this iteration                    :        0.031 s           0.031 s
  | Charge density update                      :        0.008 s           0.007 s
  | Density mixing                             :        0.002 s           0.001 s
  | Hartree multipole update                   :        0.001 s           0.002 s
  | Hartree multipole summation                :        0.006 s           0.006 s
  | Integration                                :        0.011 s           0.011 s
  | Solution of K.-S. eqns.                    :        0.001 s           0.001 s
  | Total energy evaluation                    :        0.000 s           0.001 s
------------------------------------------------------------

------------------------------------------------------------
          Begin self-consistency iteration #    5

  Date     :  20220120, Time     :  152450.583
------------------------------------------------------------
  Evaluating new KS density.
  Integration grid: deviation in total charge (<rho> - N_e) =   1.459838E-07
  | <rho_up-rho_dn> = N_up-N_dn =     -1.9436; <|rho_up-rho_dn|> =      1.9436
  Pulay mixing of updated and previous charge densities.

  Evaluating partitioned Hartree potential by multipole expansion.
  | Analytical far-field extrapolation by fixed multipoles:
  | Hartree multipole sum: apparent total charge =  -0.682635E-05
  Summing up the Hartree potential.
  Time summed over all CPUs for potential: real work        0.034 s, elapsed        0.039 s
  | RMS charge density error from multipole expansion :   0.737537E-03

  Integrating Hamiltonian matrix: batch-based integration.
  Time summed over all CPUs for integration: real work        0.071 s, elapsed        0.085 s

  Updating Kohn-Sham eigenvalues, eigenvectors, occupation numbers, and Fermi level.
  Solving generalized eigenproblem
  Solving real symmetric generalised eigenvalue problem by standard ScaLAPACK.
  Using Cholesky factor for transformation
  Using 1-stage real ELPA solver
  Solving real symmetric generalised eigenvalue problem by standard ScaLAPACK.
  Using Cholesky factor for transformation
  Using 1-stage real ELPA solver
  Determining occupation numbers for Kohn-Sham eigenstates.
  | Chemical potential (Fermi level) in eV                 : -.42844895E+01
  | Error in electron count due to remaining E_F inaccuracy: 0.00000000E+00
  | Maximum occupation number of highest empty state:  0.00E+00

  Current spin moment of the entire structure :
  | N = N_up - N_down :    0.00
  | S                 :    0.00
  | J                 :    1.00

  Highest occupied state (VBM) at     -6.02773141 eV
  | Occupation number:      1.00000000
  | Spin channel:        2

  Lowest unoccupied state (CBM) at     1.88455778 eV
  | Occupation number:      0.00000000
  | Spin channel:        1

  Overall HOMO-LUMO gap:      7.91228919 eV.

  Total energy components:
  | Sum of eigenvalues            :          -0.66478738 Ha         -18.08978490 eV
  | XC energy correction          :          -0.42830162 Ha         -11.65468017 eV
  | XC potential correction       :           0.55483980 Ha          15.09795915 eV
  | Free-atom electrostatic energy:          -0.39433087 Ha         -10.73028904 eV
  | Hartree energy correction     :          -0.00978780 Ha          -0.26633961 eV
  | van der Waals energy corr.    :           0.00000000 Ha           0.00000000 eV
  | Entropy correction            :           0.00000000 Ha           0.00000000 eV
  | ---------------------------
  | Total energy                  :          -0.94236787 Ha         -25.64313456 eV
  | Total energy, T -> 0          :          -0.94236787 Ha         -25.64313456 eV  <-- do not rely on this value for anything but (periodic) metals
  | Electronic free energy        :          -0.94236787 Ha         -25.64313456 eV

  Derived energy quantities:
  | Kinetic energy                :           0.87104953 Ha          23.70246357 eV
  | Electrostatic energy          :          -1.38511578 Ha         -37.69091796 eV
  | Energy correction for multipole
  | error in Hartree potential    :          -0.00018404 Ha          -0.00500812 eV
  | Sum of eigenvalues per atom                           :          -9.04489245 eV
  | Total energy (T->0) per atom                          :         -12.82156728 eV  <-- do not rely on this value for anything but (periodic) metals
  | Electronic free energy per atom                       :         -12.82156728 eV

  Self-consistency convergence accuracy:
  | Change of charge/spin density : 0.9179E-01 0.2803E+00
  | Change of sum of eigenvalues  : -.4038E+00 eV
  | Change of total energy        : -.7625E+00 eV

  End self-consistency iteration #     5       :  max(cpu_time)    wall_clock(cpu1)
  | Time for this iteration                    :        0.032 s           0.031 s
  | Charge density update                      :        0.008 s           0.007 s
  | Density mixing                             :        0.001 s           0.002 s
  | Hartree multipole update                   :        0.002 s           0.002 s
  | Hartree multipole summation                :        0.005 s           0.006 s
  | Integration                                :        0.011 s           0.011 s
  | Solution of K.-S. eqns.                    :        0.002 s           0.002 s
  | Total energy evaluation                    :        0.000 s           0.000 s
------------------------------------------------------------

------------------------------------------------------------
          Begin self-consistency iteration #    6

  Date     :  20220120, Time     :  152450.620
------------------------------------------------------------
  Evaluating new KS density.
  Integration grid: deviation in total charge (<rho> - N_e) =   1.519202E-07
  | <rho_up-rho_dn> = N_up-N_dn =     -2.0545; <|rho_up-rho_dn|> =      2.0545
  Pulay mixing of updated and previous charge densities.

  Evaluating partitioned Hartree potential by multipole expansion.
  | Analytical far-field extrapolation by fixed multipoles:
  | Hartree multipole sum: apparent total charge =  -0.656492E-05
  Summing up the Hartree potential.
  Time summed over all CPUs for potential: real work        0.034 s, elapsed        0.036 s
  | RMS charge density error from multipole expansion :   0.961722E-03

  Integrating Hamiltonian matrix: batch-based integration.
  Time summed over all CPUs for integration: real work        0.067 s, elapsed        0.069 s

  Updating Kohn-Sham eigenvalues, eigenvectors, occupation numbers, and Fermi level.
  Solving generalized eigenproblem
  Solving real symmetric generalised eigenvalue problem by standard ScaLAPACK.
  Using Cholesky factor for transformation
  Using 1-stage real ELPA solver
  Solving real symmetric generalised eigenvalue problem by standard ScaLAPACK.
  Using Cholesky factor for transformation
  Using 1-stage real ELPA solver
  Determining occupation numbers for Kohn-Sham eigenstates.
  | Chemical potential (Fermi level) in eV                 : -.58612602E+01
  | Error in electron count due to remaining E_F inaccuracy: 0.00000000E+00
  | Maximum occupation number of highest empty state:  0.00E+00

  Current spin moment of the entire structure :
  | N = N_up - N_down :    0.00
  | S                 :    0.00
  | J                 :    1.00

  Highest occupied state (VBM) at     -8.04950923 eV
  | Occupation number:      1.00000000
  | Spin channel:        2

  Lowest unoccupied state (CBM) at     1.12262190 eV
  | Occupation number:      0.00000000
  | Spin channel:        1

  Overall HOMO-LUMO gap:      9.17213112 eV.

  Total energy components:
  | Sum of eigenvalues            :          -0.79158586 Ha         -21.54014711 eV
  | XC energy correction          :          -0.58061029 Ha         -15.79920985 eV
  | XC potential correction       :           0.75045442 Ha          20.42090388 eV
  | Free-atom electrostatic energy:          -0.39433087 Ha         -10.73028904 eV
  | Hartree energy correction     :          -0.04382578 Ha          -1.19256011 eV
  | van der Waals energy corr.    :           0.00000000 Ha           0.00000000 eV
  | Entropy correction            :           0.00000000 Ha           0.00000000 eV
  | ---------------------------
  | Total energy                  :          -1.05989838 Ha         -28.84130222 eV
  | Total energy, T -> 0          :          -1.05989838 Ha         -28.84130222 eV  <-- do not rely on this value for anything but (periodic) metals
  | Electronic free energy        :          -1.05989838 Ha         -28.84130222 eV

  Derived energy quantities:
  | Kinetic energy                :           0.93529998 Ha          25.45080743 eV
  | Electrostatic energy          :          -1.41458807 Ha         -38.49289981 eV
  | Energy correction for multipole
  | error in Hartree potential    :          -0.00022210 Ha          -0.00604356 eV
  | Sum of eigenvalues per atom                           :         -10.77007355 eV
  | Total energy (T->0) per atom                          :         -14.42065111 eV  <-- do not rely on this value for anything but (periodic) metals
  | Electronic free energy per atom                       :         -14.42065111 eV

  Self-consistency convergence accuracy:
  | Change of charge/spin density : 0.1497E+00 0.2785E+00
  | Change of sum of eigenvalues  : -.3450E+01 eV
  | Change of total energy        : -.3198E+01 eV

  End self-consistency iteration #     6       :  max(cpu_time)    wall_clock(cpu1)
  | Time for this iteration                    :        0.029 s           0.029 s
  | Charge density update                      :        0.009 s           0.008 s
  | Density mixing                             :        0.002 s           0.002 s
  | Hartree multipole update                   :        0.002 s           0.002 s
  | Hartree multipole summation                :        0.005 s           0.005 s
  | Integration                                :        0.009 s           0.009 s
  | Solution of K.-S. eqns.                    :        0.002 s           0.002 s
  | Total energy evaluation                    :        0.000 s           0.001 s
------------------------------------------------------------

------------------------------------------------------------
          Begin self-consistency iteration #    7

  Date     :  20220120, Time     :  152450.651
------------------------------------------------------------
  Evaluating new KS density.
  Integration grid: deviation in total charge (<rho> - N_e) =   1.426391E-07
  | <rho_up-rho_dn> = N_up-N_dn =     -1.9401; <|rho_up-rho_dn|> =      1.9401
  Pulay mixing of updated and previous charge densities.

  Evaluating partitioned Hartree potential by multipole expansion.
  | Analytical far-field extrapolation by fixed multipoles:
  | Hartree multipole sum: apparent total charge =  -0.618737E-05
  Summing up the Hartree potential.
  Time summed over all CPUs for potential: real work        0.035 s, elapsed        0.038 s
  | RMS charge density error from multipole expansion :   0.124649E-02

  Integrating Hamiltonian matrix: batch-based integration.
  Time summed over all CPUs for integration: real work        0.071 s, elapsed        0.081 s

  Updating Kohn-Sham eigenvalues, eigenvectors, occupation numbers, and Fermi level.
  Solving generalized eigenproblem
  Solving real symmetric generalised eigenvalue problem by standard ScaLAPACK.
  Using Cholesky factor for transformation
  Using 1-stage real ELPA solver
  Solving real symmetric generalised eigenvalue problem by standard ScaLAPACK.
  Using Cholesky factor for transformation
  Using 1-stage real ELPA solver
  Determining occupation numbers for Kohn-Sham eigenstates.
  | Chemical potential (Fermi level) in eV                 : -.51824289E+01
  | Error in electron count due to remaining E_F inaccuracy: 0.00000000E+00
  | Maximum occupation number of highest empty state:  0.00E+00

  Current spin moment of the entire structure :
  | N = N_up - N_down :    0.00
  | S                 :    0.00
  | J                 :    1.00

  Highest occupied state (VBM) at     -8.49479108 eV
  | Occupation number:      1.00000000
  | Spin channel:        2

  Lowest unoccupied state (CBM) at     0.86063835 eV
  | Occupation number:      0.00000000
  | Spin channel:        1

  Overall HOMO-LUMO gap:      9.35542943 eV.

  Total energy components:
  | Sum of eigenvalues            :          -0.76824520 Ha         -20.90501558 eV
  | XC energy correction          :          -0.60702558 Ha         -16.51800635 eV
  | XC potential correction       :           0.78237503 Ha          21.28950781 eV
  | Free-atom electrostatic energy:          -0.39433087 Ha         -10.73028904 eV
  | Hartree energy correction     :          -0.07776127 Ha          -2.11599172 eV
  | van der Waals energy corr.    :           0.00000000 Ha           0.00000000 eV
  | Entropy correction            :           0.00000000 Ha           0.00000000 eV
  | ---------------------------
  | Total energy                  :          -1.06498789 Ha         -28.97979488 eV
  | Total energy, T -> 0          :          -1.06498789 Ha         -28.97979488 eV  <-- do not rely on this value for anything but (periodic) metals
  | Electronic free energy        :          -1.06498789 Ha         -28.97979488 eV

  Derived energy quantities:
  | Kinetic energy                :           0.96520851 Ha          26.26465989 eV
  | Electrostatic energy          :          -1.42317082 Ha         -38.72644842 eV
  | Energy correction for multipole
  | error in Hartree potential    :          -0.00024977 Ha          -0.00679645 eV
  | Sum of eigenvalues per atom                           :         -10.45250779 eV
  | Total energy (T->0) per atom                          :         -14.48989744 eV  <-- do not rely on this value for anything but (periodic) metals
  | Electronic free energy per atom                       :         -14.48989744 eV

  Self-consistency convergence accuracy:
  | Change of charge/spin density : 0.1449E+00 0.2691E+00
  | Change of sum of eigenvalues  : 0.6351E+00 eV
  | Change of total energy        : -.1385E+00 eV

  End self-consistency iteration #     7       :  max(cpu_time)    wall_clock(cpu1)
  | Time for this iteration                    :        0.029 s           0.028 s
  | Charge density update                      :        0.007 s           0.006 s
  | Density mixing                             :        0.002 s           0.002 s
  | Hartree multipole update                   :        0.001 s           0.002 s
  | Hartree multipole summation                :        0.005 s           0.005 s
  | Integration                                :        0.010 s           0.010 s
  | Solution of K.-S. eqns.                    :        0.002 s           0.002 s
  | Total energy evaluation                    :        0.000 s           0.000 s
------------------------------------------------------------

------------------------------------------------------------
          Begin self-consistency iteration #    8

  Date     :  20220120, Time     :  152450.681
------------------------------------------------------------
  Evaluating new KS density.
  Integration grid: deviation in total charge (<rho> - N_e) =   1.269607E-07
  | <rho_up-rho_dn> = N_up-N_dn =     -1.7209; <|rho_up-rho_dn|> =      1.7209
  Pulay mixing of updated and previous charge densities.

  Evaluating partitioned Hartree potential by multipole expansion.
  | Analytical far-field extrapolation by fixed multipoles:
  | Hartree multipole sum: apparent total charge =  -0.357879E-05
  Summing up the Hartree potential.
  Time summed over all CPUs for potential: real work        0.034 s, elapsed        0.036 s
  | RMS charge density error from multipole expansion :   0.170386E-02

  Integrating Hamiltonian matrix: batch-based integration.
  Time summed over all CPUs for integration: real work        0.071 s, elapsed        0.075 s

  Updating Kohn-Sham eigenvalues, eigenvectors, occupation numbers, and Fermi level.
  Solving generalized eigenproblem
  Solving real symmetric generalised eigenvalue problem by standard ScaLAPACK.
  Using Cholesky factor for transformation
  Using 1-stage real ELPA solver
  Solving real symmetric generalised eigenvalue problem by standard ScaLAPACK.
  Using Cholesky factor for transformation
  Using 1-stage real ELPA solver
  Determining occupation numbers for Kohn-Sham eigenstates.
  | Chemical potential (Fermi level) in eV                 : -.87730301E+01
  | Error in electron count due to remaining E_F inaccuracy: 0.00000000E+00
  | Maximum occupation number of highest empty state:  0.00E+00

  Current spin moment of the entire structure :
  | N = N_up - N_down :    0.00
  | S                 :    0.00
  | J                 :    1.00

  Highest occupied state (VBM) at    -10.37201313 eV
  | Occupation number:      1.00000000
  | Spin channel:        2

  Lowest unoccupied state (CBM) at     0.20080927 eV
  | Occupation number:      0.00000000
  | Spin channel:        1

  Overall HOMO-LUMO gap:     10.57282240 eV.

  Total energy components:
  | Sum of eigenvalues            :          -0.78596137 Ha         -21.38709696 eV
  | XC energy correction          :          -0.67364848 Ha         -18.33090771 eV
  | XC potential correction       :           0.86412663 Ha          23.51408201 eV
  | Free-atom electrostatic energy:          -0.39433087 Ha         -10.73028904 eV
  | Hartree energy correction     :          -0.09529458 Ha          -2.59309749 eV
  | van der Waals energy corr.    :           0.00000000 Ha           0.00000000 eV
  | Entropy correction            :           0.00000000 Ha           0.00000000 eV
  | ---------------------------
  | Total energy                  :          -1.08510867 Ha         -29.52730918 eV
  | Total energy, T -> 0          :          -1.08510867 Ha         -29.52730918 eV  <-- do not rely on this value for anything but (periodic) metals
  | Electronic free energy        :          -1.08510867 Ha         -29.52730918 eV

  Derived energy quantities:
  | Kinetic energy                :           0.81368372 Ha          22.14146063 eV
  | Electrostatic energy          :          -1.22514391 Ha         -33.33786210 eV
  | Energy correction for multipole
  | error in Hartree potential    :          -0.00004247 Ha          -0.00115575 eV
  | Sum of eigenvalues per atom                           :         -10.69354848 eV
  | Total energy (T->0) per atom                          :         -14.76365459 eV  <-- do not rely on this value for anything but (periodic) metals
  | Electronic free energy per atom                       :         -14.76365459 eV

  Self-consistency convergence accuracy:
  | Change of charge/spin density : 0.1487E+00 0.2475E+00
  | Change of sum of eigenvalues  : -.4821E+00 eV
  | Change of total energy        : -.5475E+00 eV

  End self-consistency iteration #     8       :  max(cpu_time)    wall_clock(cpu1)
  | Time for this iteration                    :        0.028 s           0.027 s
  | Charge density update                      :        0.007 s           0.006 s
  | Density mixing                             :        0.002 s           0.002 s
  | Hartree multipole update                   :        0.001 s           0.002 s
  | Hartree multipole summation                :        0.005 s           0.005 s
  | Integration                                :        0.010 s           0.009 s
  | Solution of K.-S. eqns.                    :        0.001 s           0.002 s
  | Total energy evaluation                    :        0.000 s           0.001 s
------------------------------------------------------------

------------------------------------------------------------
          Begin self-consistency iteration #    9

  Date     :  20220120, Time     :  152450.710
------------------------------------------------------------
  Evaluating new KS density.
  Integration grid: deviation in total charge (<rho> - N_e) =   3.570336E-08
  | <rho_up-rho_dn> = N_up-N_dn =     -0.3362; <|rho_up-rho_dn|> =      0.6386
  Pulay mixing of updated and previous charge densities.

  Evaluating partitioned Hartree potential by multipole expansion.
  | Analytical far-field extrapolation by fixed multipoles:
  | Hartree multipole sum: apparent total charge =  -0.330047E-05
  Summing up the Hartree potential.
  Time summed over all CPUs for potential: real work        0.036 s, elapsed        0.042 s
  | RMS charge density error from multipole expansion :   0.137946E-02

  Integrating Hamiltonian matrix: batch-based integration.
  Time summed over all CPUs for integration: real work        0.077 s, elapsed        0.081 s

  Updating Kohn-Sham eigenvalues, eigenvectors, occupation numbers, and Fermi level.
  Solving generalized eigenproblem
  Solving real symmetric generalised eigenvalue problem by standard ScaLAPACK.
  Using Cholesky factor for transformation
  Using 1-stage real ELPA solver
  Solving real symmetric generalised eigenvalue problem by standard ScaLAPACK.
  Using Cholesky factor for transformation
  Using 1-stage real ELPA solver
  Determining occupation numbers for Kohn-Sham eigenstates.
  | Chemical potential (Fermi level) in eV                 : -.99299675E+01
  | Error in electron count due to remaining E_F inaccuracy: 0.00000000E+00
  | Maximum occupation number of highest empty state:  0.00E+00

  Current spin moment of the entire structure :
  | N = N_up - N_down :    0.00
  | S                 :    0.00
  | J                 :    1.00

  Highest occupied state (VBM) at    -11.67716608 eV
  | Occupation number:      1.00000000
  | Spin channel:        2

  Lowest unoccupied state (CBM) at    -1.01647775 eV
  | Occupation number:      0.00000000
  | Spin channel:        1

  Overall HOMO-LUMO gap:     10.66068833 eV.

  Total energy components:
  | Sum of eigenvalues            :          -0.87599704 Ha         -23.83709215 eV
  | XC energy correction          :          -0.61004058 Ha         -16.60004888 eV
  | XC potential correction       :           0.78238277 Ha          21.28971841 eV
  | Free-atom electrostatic energy:          -0.39433087 Ha         -10.73028904 eV
  | Hartree energy correction     :           0.00683127 Ha           0.18588845 eV
  | van der Waals energy corr.    :           0.00000000 Ha           0.00000000 eV
  | Entropy correction            :           0.00000000 Ha           0.00000000 eV
  | ---------------------------
  | Total energy                  :          -1.09115445 Ha         -29.69182320 eV
  | Total energy, T -> 0          :          -1.09115445 Ha         -29.69182320 eV  <-- do not rely on this value for anything but (periodic) metals
  | Electronic free energy        :          -1.09115445 Ha         -29.69182320 eV

  Derived energy quantities:
  | Kinetic energy                :           0.55592137 Ha          15.12739019 eV
  | Electrostatic energy          :          -1.03703523 Ha         -28.21916452 eV
  | Energy correction for multipole
  | error in Hartree potential    :           0.00020423 Ha           0.00555733 eV
  | Sum of eigenvalues per atom                           :         -11.91854607 eV
  | Total energy (T->0) per atom                          :         -14.84591160 eV  <-- do not rely on this value for anything but (periodic) metals
  | Electronic free energy per atom                       :         -14.84591160 eV

  Self-consistency convergence accuracy:
  | Change of charge/spin density : 0.2704E+00 0.1381E+00
  | Change of sum of eigenvalues  : -.2450E+01 eV
  | Change of total energy        : -.1645E+00 eV

  End self-consistency iteration #     9       :  max(cpu_time)    wall_clock(cpu1)
  | Time for this iteration                    :        0.030 s           0.030 s
  | Charge density update                      :        0.007 s           0.007 s
  | Density mixing                             :        0.002 s           0.002 s
  | Hartree multipole update                   :        0.001 s           0.002 s
  | Hartree multipole summation                :        0.006 s           0.006 s
  | Integration                                :        0.010 s           0.010 s
  | Solution of K.-S. eqns.                    :        0.001 s           0.001 s
  | Total energy evaluation                    :        0.000 s           0.000 s
------------------------------------------------------------

------------------------------------------------------------
          Begin self-consistency iteration #   10

  Date     :  20220120, Time     :  152450.741
------------------------------------------------------------
  Evaluating new KS density.
  Integration grid: deviation in total charge (<rho> - N_e) =   2.136126E-08
  | <rho_up-rho_dn> = N_up-N_dn =     -0.1043; <|rho_up-rho_dn|> =      0.4632
  Pulay mixing of updated and previous charge densities.

  Evaluating partitioned Hartree potential by multipole expansion.
  | Analytical far-field extrapolation by fixed multipoles:
  | Hartree multipole sum: apparent total charge =  -0.362650E-05
  Summing up the Hartree potential.
  Time summed over all CPUs for potential: real work        0.035 s, elapsed        0.037 s
  | RMS charge density error from multipole expansion :   0.182582E-02

  Integrating Hamiltonian matrix: batch-based integration.
  Time summed over all CPUs for integration: real work        0.077 s, elapsed        0.082 s

  Updating Kohn-Sham eigenvalues, eigenvectors, occupation numbers, and Fermi level.
  Solving generalized eigenproblem
  Solving real symmetric generalised eigenvalue problem by standard ScaLAPACK.
  Using Cholesky factor for transformation
  Using 1-stage real ELPA solver
  Solving real symmetric generalised eigenvalue problem by standard ScaLAPACK.
  Using Cholesky factor for transformation
  Using 1-stage real ELPA solver
  Determining occupation numbers for Kohn-Sham eigenstates.
  | Chemical potential (Fermi level) in eV                 : -.11379682E+02
  | Error in electron count due to remaining E_F inaccuracy: 0.00000000E+00
  | Maximum occupation number of highest empty state:  0.00E+00

  Current spin moment of the entire structure :
  | N = N_up - N_down :    0.00
  | S                 :    0.00
  | J                 :    1.00

  Highest occupied state (VBM) at    -13.25644890 eV
  | Occupation number:      1.00000000
  | Spin channel:        2

  Lowest unoccupied state (CBM) at    -1.71582452 eV
  | Occupation number:      0.00000000
  | Spin channel:        1

  Overall HOMO-LUMO gap:     11.54062438 eV.

  Total energy components:
  | Sum of eigenvalues            :          -0.99011592 Ha         -26.94242508 eV
  | XC energy correction          :          -0.54739717 Ha         -14.89543474 eV
  | XC potential correction       :           0.70225984 Ha          19.10946263 eV
  | Free-atom electrostatic energy:          -0.39433087 Ha         -10.73028904 eV
  | Hartree energy correction     :           0.11971316 Ha           3.25756094 eV
  | van der Waals energy corr.    :           0.00000000 Ha           0.00000000 eV
  | Entropy correction            :           0.00000000 Ha           0.00000000 eV
  | ---------------------------
  | Total energy                  :          -1.10987095 Ha         -30.20112529 eV
  | Total energy, T -> 0          :          -1.10987095 Ha         -30.20112529 eV  <-- do not rely on this value for anything but (periodic) metals
  | Electronic free energy        :          -1.10987095 Ha         -30.20112529 eV

  Derived energy quantities:
  | Kinetic energy                :           0.17141217 Ha           4.66436257 eV
  | Electrostatic energy          :          -0.73388596 Ha         -19.97005312 eV
  | Energy correction for multipole
  | error in Hartree potential    :           0.00053694 Ha           0.01461087 eV
  | Sum of eigenvalues per atom                           :         -13.47121254 eV
  | Total energy (T->0) per atom                          :         -15.10056264 eV  <-- do not rely on this value for anything but (periodic) metals
  | Electronic free energy per atom                       :         -15.10056264 eV

  Self-consistency convergence accuracy:
  | Change of charge/spin density : 0.2849E+00 0.1088E+00
  | Change of sum of eigenvalues  : -.3105E+01 eV
  | Change of total energy        : -.5093E+00 eV

  End self-consistency iteration #    10       :  max(cpu_time)    wall_clock(cpu1)
  | Time for this iteration                    :        0.029 s           0.029 s
  | Charge density update                      :        0.007 s           0.007 s
  | Density mixing                             :        0.002 s           0.002 s
  | Hartree multipole update                   :        0.001 s           0.001 s
  | Hartree multipole summation                :        0.005 s           0.005 s
  | Integration                                :        0.010 s           0.011 s
  | Solution of K.-S. eqns.                    :        0.002 s           0.002 s
  | Total energy evaluation                    :        0.000 s           0.001 s
------------------------------------------------------------

------------------------------------------------------------
          Begin self-consistency iteration #   11

  Date     :  20220120, Time     :  152450.771
------------------------------------------------------------
  Evaluating new KS density.
  Integration grid: deviation in total charge (<rho> - N_e) =   1.213254E-08
  | <rho_up-rho_dn> = N_up-N_dn =      0.0158; <|rho_up-rho_dn|> =      0.3829
  Pulay mixing of updated and previous charge densities.

  Evaluating partitioned Hartree potential by multipole expansion.
  | Analytical far-field extrapolation by fixed multipoles:
  | Hartree multipole sum: apparent total charge =  -0.462812E-05
  Summing up the Hartree potential.
  Time summed over all CPUs for potential: real work        0.034 s, elapsed        0.036 s
  | RMS charge density error from multipole expansion :   0.395419E-02

  Integrating Hamiltonian matrix: batch-based integration.
  Time summed over all CPUs for integration: real work        0.068 s, elapsed        0.073 s

  Updating Kohn-Sham eigenvalues, eigenvectors, occupation numbers, and Fermi level.
  Solving generalized eigenproblem
  Solving real symmetric generalised eigenvalue problem by standard ScaLAPACK.
  Using Cholesky factor for transformation
  Using 1-stage real ELPA solver
  Solving real symmetric generalised eigenvalue problem by standard ScaLAPACK.
  Using Cholesky factor for transformation
  Using 1-stage real ELPA solver
  Determining occupation numbers for Kohn-Sham eigenstates.
  | Chemical potential (Fermi level) in eV                 : -.52703096E+01
  | Error in electron count due to remaining E_F inaccuracy: 0.00000000E+00
  | Maximum occupation number of highest empty state:  0.00E+00

  Current spin moment of the entire structure :
  | N = N_up - N_down :    0.00
  | S                 :    0.00
  | J                 :    1.00

  Highest occupied state (VBM) at     -7.00154424 eV
  | Occupation number:      1.00000000
  | Spin channel:        2

  Lowest unoccupied state (CBM) at     2.05519600 eV
  | Occupation number:      0.00000000
  | Spin channel:        1

  Overall HOMO-LUMO gap:      9.05674024 eV.

  Total energy components:
  | Sum of eigenvalues            :          -0.53382695 Ha         -14.52617029 eV
  | XC energy correction          :          -0.94195982 Ha         -25.63203078 eV
  | XC potential correction       :           1.21178290 Ha          32.97429038 eV
  | Free-atom electrostatic energy:          -0.39433087 Ha         -10.73028904 eV
  | Hartree energy correction     :          -0.39848033 Ha         -10.84320144 eV
  | van der Waals energy corr.    :           0.00000000 Ha           0.00000000 eV
  | Entropy correction            :           0.00000000 Ha           0.00000000 eV
  | ---------------------------
  | Total energy                  :          -1.05681507 Ha         -28.75740117 eV
  | Total energy, T -> 0          :          -1.05681507 Ha         -28.75740117 eV  <-- do not rely on this value for anything but (periodic) metals
  | Electronic free energy        :          -1.05681507 Ha         -28.75740117 eV

  Derived energy quantities:
  | Kinetic energy                :           0.99175093 Ha          26.98691581 eV
  | Electrostatic energy          :          -1.10660618 Ha         -30.11228620 eV
  | Energy correction for multipole
  | error in Hartree potential    :          -0.00029230 Ha          -0.00795395 eV
  | Sum of eigenvalues per atom                           :          -7.26308514 eV
  | Total energy (T->0) per atom                          :         -14.37870058 eV  <-- do not rely on this value for anything but (periodic) metals
  | Electronic free energy per atom                       :         -14.37870058 eV

[...]
  | Change of sum of eigenvalues  : 0.1279E-02 eV
  | Change of total energy        : -.2751E-05 eV

  End self-consistency iteration #    21       :  max(cpu_time)    wall_clock(cpu1)
  | Time for this iteration                    :        0.034 s           0.033 s
  | Charge density update                      :        0.007 s           0.006 s
  | Density mixing                             :        0.003 s           0.003 s
  | Hartree multipole update                   :        0.002 s           0.002 s
  | Hartree multipole summation                :        0.006 s           0.006 s
  | Integration                                :        0.013 s           0.013 s
  | Solution of K.-S. eqns.                    :        0.001 s           0.002 s
  | Total energy evaluation                    :        0.000 s           0.001 s
------------------------------------------------------------

------------------------------------------------------------
          Begin self-consistency iteration #   22

  Date     :  20220120, Time     :  152451.119
------------------------------------------------------------
  Evaluating new KS density.
  Integration grid: deviation in total charge (<rho> - N_e) =   2.037837E-11
  | <rho_up-rho_dn> = N_up-N_dn =     -0.0001; <|rho_up-rho_dn|> =      0.0002
  Pulay mixing of updated and previous charge densities.

  Evaluating partitioned Hartree potential by multipole expansion.
  | Analytical far-field extrapolation by fixed multipoles:
  | Hartree multipole sum: apparent total charge =   0.273734E-06
  Summing up the Hartree potential.
  Time summed over all CPUs for potential: real work        0.033 s, elapsed        0.034 s
  | RMS charge density error from multipole expansion :   0.103349E-02

  Integrating Hamiltonian matrix: batch-based integration.
  Time summed over all CPUs for integration: real work        0.075 s, elapsed        0.078 s

  Updating Kohn-Sham eigenvalues, eigenvectors, occupation numbers, and Fermi level.
  Solving generalized eigenproblem
  Solving real symmetric generalised eigenvalue problem by standard ScaLAPACK.
  Using Cholesky factor for transformation
  Using 1-stage real ELPA solver
  Solving real symmetric generalised eigenvalue problem by standard ScaLAPACK.
  Using Cholesky factor for transformation
  Using 1-stage real ELPA solver
  Determining occupation numbers for Kohn-Sham eigenstates.
  | Chemical potential (Fermi level) in eV                 : -.82136450E+01
  | Error in electron count due to remaining E_F inaccuracy: 0.00000000E+00
  | Maximum occupation number of highest empty state:  0.00E+00

  Current spin moment of the entire structure :
  | N = N_up - N_down :    0.00
  | S                 :    0.00
  | J                 :    1.00

  Highest occupied state (VBM) at    -10.01961737 eV
  | Occupation number:      1.00000000
  | Spin channel:        2

  Lowest unoccupied state (CBM) at     0.21246673 eV
  | Occupation number:      0.00000000
  | Spin channel:        1

  Overall HOMO-LUMO gap:     10.23208410 eV.

  Total energy components:
  | Sum of eigenvalues            :          -0.73643795 Ha         -20.03949629 eV
  | XC energy correction          :          -0.66697706 Ha         -18.14936937 eV
  | XC potential correction       :           0.85623194 Ha          23.29925655 eV
  | Free-atom electrostatic energy:          -0.39433087 Ha         -10.73028904 eV
  | Hartree energy correction     :          -0.22254896 Ha          -6.05586534 eV
  | van der Waals energy corr.    :           0.00000000 Ha           0.00000000 eV
  | Entropy correction            :           0.00000000 Ha           0.00000000 eV
  | ---------------------------
  | Total energy                  :          -1.16406291 Ha         -31.67576349 eV
  | Total energy, T -> 0          :          -1.16406291 Ha         -31.67576349 eV  <-- do not rely on this value for anything but (periodic) metals
  | Electronic free energy        :          -1.16406291 Ha         -31.67576349 eV

  Derived energy quantities:
  | Kinetic energy                :           1.07139206 Ha          29.15406132 eV
  | Electrostatic energy          :          -1.56847791 Ha         -42.68045544 eV
  | Energy correction for multipole
  | error in Hartree potential    :          -0.00009870 Ha          -0.00268564 eV
  | Sum of eigenvalues per atom                           :         -10.01974814 eV
  | Total energy (T->0) per atom                          :         -15.83788174 eV  <-- do not rely on this value for anything but (periodic) metals
  | Electronic free energy per atom                       :         -15.83788174 eV

  Self-consistency convergence accuracy:
  | Change of charge/spin density : 0.2375E-03 0.3192E-04
  | Change of sum of eigenvalues  : 0.6887E-02 eV
  | Change of total energy        : 0.8083E-06 eV

  End self-consistency iteration #    22       :  max(cpu_time)    wall_clock(cpu1)
  | Time for this iteration                    :        0.029 s           0.029 s
  | Charge density update                      :        0.009 s           0.009 s
  | Density mixing                             :        0.002 s           0.002 s
  | Hartree multipole update                   :        0.001 s           0.001 s
  | Hartree multipole summation                :        0.005 s           0.005 s
  | Integration                                :        0.010 s           0.010 s
  | Solution of K.-S. eqns.                    :        0.001 s           0.001 s
  | Total energy evaluation                    :        0.000 s           0.000 s
------------------------------------------------------------

------------------------------------------------------------
          Begin self-consistency iteration #   23

  Date     :  20220120, Time     :  152451.150
------------------------------------------------------------
  Evaluating new KS density.
  Integration grid: deviation in total charge (<rho> - N_e) =   8.647305E-12
  | <rho_up-rho_dn> = N_up-N_dn =     -0.0001; <|rho_up-rho_dn|> =      0.0001
  Pulay mixing of updated and previous charge densities.

  Evaluating partitioned Hartree potential by multipole expansion.
  | Analytical far-field extrapolation by fixed multipoles:
  | Hartree multipole sum: apparent total charge =   0.273883E-06
  Summing up the Hartree potential.
  Time summed over all CPUs for potential: real work        0.033 s, elapsed        0.034 s
  | RMS charge density error from multipole expansion :   0.103336E-02

  Integrating Hamiltonian matrix: batch-based integration.
  Time summed over all CPUs for integration: real work        0.076 s, elapsed        0.079 s

  Updating Kohn-Sham eigenvalues, eigenvectors, occupation numbers, and Fermi level.
  Solving generalized eigenproblem
  Solving real symmetric generalised eigenvalue problem by standard ScaLAPACK.
  Using Cholesky factor for transformation
  Using 1-stage real ELPA solver
  Solving real symmetric generalised eigenvalue problem by standard ScaLAPACK.
  Using Cholesky factor for transformation
  Using 1-stage real ELPA solver
  Determining occupation numbers for Kohn-Sham eigenstates.
  | Chemical potential (Fermi level) in eV                 : -.84251757E+01
  | Error in electron count due to remaining E_F inaccuracy: 0.00000000E+00
  | Maximum occupation number of highest empty state:  0.00E+00

  Current spin moment of the entire structure :
  | N = N_up - N_down :    0.00
  | S                 :    0.00
  | J                 :    1.00

  Highest occupied state (VBM) at    -10.01974498 eV
  | Occupation number:      1.00000000
  | Spin channel:        1

  Lowest unoccupied state (CBM) at     0.21241983 eV
  | Occupation number:      0.00000000
  | Spin channel:        1

  Overall HOMO-LUMO gap:     10.23216480 eV.

  Total energy components:
  | Sum of eigenvalues            :          -0.73643793 Ha         -20.03949580 eV
  | XC energy correction          :          -0.66698434 Ha         -18.14956736 eV
  | XC potential correction       :           0.85624084 Ha          23.29949868 eV
  | Free-atom electrostatic energy:          -0.39433087 Ha         -10.73028904 eV
  | Hartree energy correction     :          -0.22255060 Ha          -6.05590998 eV
  | van der Waals energy corr.    :           0.00000000 Ha           0.00000000 eV
  | Entropy correction            :           0.00000000 Ha           0.00000000 eV
  | ---------------------------
  | Total energy                  :          -1.16406291 Ha         -31.67576350 eV
  | Total energy, T -> 0          :          -1.16406291 Ha         -31.67576350 eV  <-- do not rely on this value for anything but (periodic) metals
  | Electronic free energy        :          -1.16406291 Ha         -31.67576350 eV

  Derived energy quantities:
  | Kinetic energy                :           1.07144968 Ha          29.15562922 eV
  | Electrostatic energy          :          -1.56852825 Ha         -42.68182536 eV
  | Energy correction for multipole
  | error in Hartree potential    :          -0.00009871 Ha          -0.00268609 eV
  | Sum of eigenvalues per atom                           :         -10.01974790 eV
  | Total energy (T->0) per atom                          :         -15.83788175 eV  <-- do not rely on this value for anything but (periodic) metals
  | Electronic free energy per atom                       :         -15.83788175 eV

  Self-consistency convergence accuracy:
  | Change of charge/spin density : 0.4561E-04 0.3027E-04
  | Change of sum of eigenvalues  : 0.4845E-06 eV
  | Change of total energy        : -.1042E-07 eV

  Writing Kohn-Sham eigenvalues.

  Spin-up eigenvalues:

  State    Occupation    Eigenvalue [Ha]    Eigenvalue [eV]
      1       1.00000          -0.368219          -10.01974
      2       0.00000           0.007806            0.21242
      3       0.00000           0.046459            1.26421
      4       0.00000           0.151700            4.12797
      5       0.00000           0.312436            8.50180
      6       0.00000           0.312436            8.50180
      7       0.00000           0.372725           10.14237
      8       0.00000           0.533989           14.53057
      9       0.00000           0.727082           19.78491
     10       0.00000           0.747343           20.33625
     11       0.00000           0.747343           20.33625

  Spin-down eigenvalues:

  State    Occupation    Eigenvalue [Ha]    Eigenvalue [eV]
      1       1.00000          -0.368219          -10.01975
      2       0.00000           0.007811            0.21255
      3       0.00000           0.046464            1.26434
      4       0.00000           0.151707            4.12817
      5       0.00000           0.312438            8.50186
      6       0.00000           0.312438            8.50186
      7       0.00000           0.372728           10.14245
      8       0.00000           0.533993           14.53069
      9       0.00000           0.727085           19.78500
     10       0.00000           0.747346           20.33633
     11       0.00000           0.747346           20.33633

  Current spin moment of the entire structure :
  | N = N_up - N_down :    0.00
  | S                 :    0.00
  | J                 :    1.00

  Highest occupied state (VBM) at    -10.01974498 eV
  | Occupation number:      1.00000000
  | Spin channel:        1

  Lowest unoccupied state (CBM) at     0.21241983 eV
  | Occupation number:      0.00000000
  | Spin channel:        1

  Overall HOMO-LUMO gap:     10.23216480 eV.

  Self-consistency cycle converged.

  End self-consistency iteration #    23       :  max(cpu_time)    wall_clock(cpu1)
  | Time for this iteration                    :        0.027 s           0.028 s
  | Charge density update                      :        0.007 s           0.006 s
  | Density mixing                             :        0.002 s           0.002 s
  | Hartree multipole update                   :        0.001 s           0.002 s
  | Hartree multipole summation                :        0.005 s           0.004 s
  | Integration                                :        0.010 s           0.010 s
  | Solution of K.-S. eqns.                    :        0.001 s           0.002 s
  | Total energy evaluation                    :        0.000 s           0.001 s
------------------------------------------------------------
  Obtaining max. number of non-zero basis functions in each batch .
  Evaluating KS electron density on previously omitted grid points.
  Evaluating non-empirical van der Waals correction (Tkatchenko/Scheffler 2009).
  Performing Hirshfeld analysis of fragment charges and moments.
  ----------------------------------------------------------------------
  | Atom     1: H
  |   Hirshfeld charge        :     -0.00000012
  |   Free atom volume        :     10.31539447
  |   Hirshfeld volume        :      5.71087513
  |   Hirshfeld spin moment   :      0.00000770
  |   Hirshfeld dipole vector :      0.00000000      -0.00000000      -0.08480177
  |   Hirshfeld dipole moment :      0.08480177
  |   Hirshfeld second moments:      0.10849604       0.00000000       0.00000000
  |                                  0.00000000       0.10849604      -0.00000000
  |                                  0.00000000      -0.00000000       0.10947870
  ----------------------------------------------------------------------
  | Atom     2: H
  |   Hirshfeld charge        :     -0.00000012
  |   Free atom volume        :     10.31539447
  |   Hirshfeld volume        :      5.71087513
  |   Hirshfeld spin moment   :      0.00000770
  |   Hirshfeld dipole vector :      0.00000000      -0.00000000       0.08480177
  |   Hirshfeld dipole moment :      0.08480177
  |   Hirshfeld second moments:      0.10849604      -0.00000000      -0.00000000
  |                                 -0.00000000       0.10849604       0.00000000
  |                                 -0.00000000       0.00000000       0.10947870
  ----------------------------------------------------------------------


  Total energy components:
  | Sum of eigenvalues            :          -0.73643793 Ha         -20.03949580 eV
  | XC energy correction          :          -0.66698434 Ha         -18.14956736 eV
  | XC potential correction       :           0.85624084 Ha          23.29949868 eV
  | Free-atom electrostatic energy:          -0.39433087 Ha         -10.73028904 eV
  | Hartree energy correction     :          -0.22255060 Ha          -6.05590998 eV
  | van der Waals energy corr.    :          -0.00000019 Ha          -0.00000524 eV
  | Entropy correction            :           0.00000000 Ha           0.00000000 eV
  | ---------------------------
  | Total energy                  :          -1.16406311 Ha         -31.67576874 eV
  | Total energy, T -> 0          :          -1.16406311 Ha         -31.67576874 eV  <-- do not rely on this value for anything but (periodic) metals
  | Electronic free energy        :          -1.16406311 Ha         -31.67576874 eV

  Derived energy quantities:
  | Kinetic energy                :           1.07144968 Ha          29.15562922 eV
  | Electrostatic energy          :          -1.56852825 Ha         -42.68182536 eV
  | Energy correction for multipole
  | error in Hartree potential    :          -0.00009871 Ha          -0.00268609 eV
  | Sum of eigenvalues per atom                           :         -10.01974790 eV
  | Total energy (T->0) per atom                          :         -15.83788437 eV  <-- do not rely on this value for anything but (periodic) metals
  | Electronic free energy per atom                       :         -15.83788437 eV
  Timings for VdW correction (Tkatchenko-Scheffler 2009 or later):
  | CPU time:        0.002 s, Wall clock time:        0.003 s.

  Energy and forces in a compact form:
  | Total energy uncorrected      :         -0.316757687418211E+02 eV
  | Total energy corrected        :         -0.316757687418211E+02 eV  <-- do not rely on this value for anything but (periodic) metals
  | Electronic free energy        :         -0.316757687418211E+02 eV

  ------------------------------------ 
  Start decomposition of the XC Energy 
  ------------------------------------ 
  Hartree-Fock part   :          0.000000000 Ha              0.000000000 eV
  ------------------------------------ 
  X Energy            :         -0.624484101 Ha            -16.993076979 eV
  C Energy GGA        :         -0.042500240 Ha             -1.156490378 eV
  Total XC Energy     :         -0.666984341 Ha            -18.149567356 eV
  LDA X and C from self-consistent density 
  X Energy LDA        :         -0.545588213 Ha            -14.846210647 eV
  C Energy LDA        :         -0.093027004 Ha             -2.531393561 eV
  ------------------------------------ 
  End decomposition of the XC Energy 
  ------------------------------------ 

------------------------------------------------------------------------------
  Final output of selected total energy values:

  The following output summarizes some interesting total energy values
  at the end of a run (AFTER all relaxation, molecular dynamics, etc.).

  | Total energy of the DFT / Hartree-Fock s.c.f. calculation      :            -31.675768742 eV
  | Final zero-broadening corrected energy (caution - metals only) :            -31.675768742 eV
  | For reference only, the value of 1 Hartree used in FHI-aims is :             27.211384500 eV

  Before relying on these values, please be sure to understand exactly which
  total energy value is referred to by a given number. Different objects may
  all carry the same name 'total energy'. Definitions:

  Total energy of the DFT / Hartree-Fock s.c.f. calculation:
  | Note that this energy does not include ANY quantities calculated after the
  | s.c.f. cycle, in particular not ANY RPA, MP2, etc. many-body perturbation terms.

  Final zero-broadening corrected energy:
  | For metallic systems only, a broadening of the occupation numbers at the Fermi
  | level can be extrapolated back to zero broadening by an electron-gas inspired
  | formula. For all systems that are not real metals, this value can be
  | meaningless and should be avoided.

------------------------------------------------------------------------------

------------------------------------------------------------
          Leaving FHI-aims.
          Date     :  20220120, Time     :  152451.188

          Computational steps:
          | Number of self-consistency cycles          :           23

          Detailed time accounting                     :  max(cpu_time)    wall_clock(cpu1)
          | Total time                                 :        0.906 s           1.005 s
          | Preparation time                           :        0.097 s           0.098 s
          | Grid partitioning                          :        0.010 s           0.010 s
          | Preloading free-atom quantities on grid    :        0.004 s           0.004 s
          | Free-atom superposition energy             :        0.003 s           0.003 s
          | Total time for integrations                :        0.260 s           0.260 s
          | Total time for solution of K.-S. equations :        0.047 s           0.053 s
          | Total time for density update              :        0.173 s           0.155 s
          | Total time for mixing                      :        0.046 s           0.046 s
          | Total time for Hartree multipole update    :        0.035 s           0.040 s
          | Total time for Hartree multipole sum       :        0.118 s           0.119 s
          | Total time for total energy evaluation     :        0.004 s           0.017 s
          | Total time for scaled ZORA corrections     :        0.000 s           0.000 s
          | Total time for vdW correction              :        0.002 s           0.003 s

          Have a nice day.
------------------------------------------------------------
