  MPI-parallelism will be employed.
------------------------------------------------------------
          Invoking FHI-aims ...
          Version 052014
          Git rev. (modified): 096c982 Merge branch master of fhiaims:/pub/localo[...]
          Compiled on 2016/12/16 at 15:22:01 on host login02.hpc.iitd.ac.in.

          When using FHI-aims, please cite the following reference:

          Volker Blum, Ralf Gehrke, Felix Hanke, Paula Havu,
          Ville Havu, Xinguo Ren, Karsten Reuter, and Matthias Scheffler,
          'Ab Initio Molecular Simulations with Numeric Atom-Centered Orbitals: FHI-aims',
          Computer Physics Communications 180, 2175-2196 (2009)

          For any questions about FHI-aims, please visit the aimsclub website
          with its forums and wiki. Contributions to both the forums and the
          wiki are warmly encouraged - they are for you, and everyone is welcome there.

------------------------------------------------------------

  Date     :  20220120, Time     :  153442.928
  Time zero on CPU 1             :   0.125880000000000E-01  s.
  Internal wall clock time zero  :           411924882.928  s.

  Using        8 parallel tasks.
  Task        0 on host csky029 reporting.
  Task        1 on host csky029 reporting.
  Task        2 on host csky029 reporting.
  Task        3 on host csky029 reporting.
  Task        4 on host csky029 reporting.
  Task        5 on host csky029 reporting.
  Task        6 on host csky029 reporting.
  Task        7 on host csky029 reporting.

  Performing system and environment tests:
  | Environment variable OMP_NUM_THREADS correctly set to 1.
  | Stacksize not measured: no C compiler
  | Checking for scalapack...
  | Testing pdtran()...
  | All pdtran() tests passed.

  Obtaining array dimensions for all initial allocations:
  
  -----------------------------------------------------------------------
  Parsing control.in (first pass over file, find array dimensions only).
  The contents of control.in will be repeated verbatim below
  unless switched off by setting 'verbatim_writeout .false.' .
  in the first line of control.in .
  -----------------------------------------------------------------------
  
    xc               pbe
    spin             collinear
    default_initial_moment hund
    relativistic     atomic_zora scalar 1e-9
    occupation_type  gaussian 0.001
    charge        0
    vdw_correction_hirshfeld
    KS_method        scalapack_fast
    mixer            pulay
    charge_mix_param  0.4
    spin_mix_param    0.6
    sc_accuracy_rho  1E-4
    sc_accuracy_eev  1E-5
    sc_accuracy_etot 1E-5
    sc_iter_limit    100
    empty_states     10
  ################################################################################
  #
  #  FHI-aims code project
  # Volker Blum, Fritz Haber Institute Berlin, 2009
  #
  #  Suggested "tight" defaults for H atom (to be pasted into control.in file)
  #
  ################################################################################
    species        H
  #     global species definitions
      nucleus             1
      mass                1.00794
  #
      l_hartree           6
  #
      cut_pot             4.0  2.0  1.0
      basis_dep_cutoff    1e-4
  #
      radial_base         24 7.0
      radial_multiplier   2
      angular_grids       specified
        division   0.1930   50
        division   0.3175  110
        division   0.4293  194
        division   0.5066  302
        division   0.5626  434
  #      division   0.5922  590
  #      division   0.6227  974
  #      division   0.6868 1202
  #      outer_grid  770
        outer_grid  434
  ################################################################################
  #
  #  Definition of "minimal" basis
  #
  ################################################################################
  #     valence basis states
      valence      1  s   1.
  #     ion occupancy
      ion_occ      1  s   0.5
  ################################################################################
  #
  #  Suggested additional basis functions. For production calculations,
  #  uncomment them one after another (the most important basis functions are
  #  listed first).
  #
  #  Basis constructed for dimers: 0.5 A, 0.7 A, 1.0 A, 1.5 A, 2.5 A
  #
  ################################################################################
  #  "First tier" - improvements: -1014.90 meV to -62.69 meV
       hydro 2 s 2.1
       hydro 2 p 3.5
  #  "Second tier" - improvements: -12.89 meV to -1.83 meV
       hydro 1 s 0.85
       hydro 2 p 3.7
       hydro 2 s 1.2
       hydro 3 d 7
  #  "Third tier" - improvements: -0.25 meV to -0.12 meV
  #     hydro 4 f 11.2
  #     hydro 3 p 4.8
  #     hydro 4 d 9
  #     hydro 3 s 3.2
  ################################################################################
  #
  # For methods that use the localized form of the "resolution of identity" for
  # the two-electron Coulomb operator (RI_method LVL), particularly Hartree-Fock and
  # hybrid density functional calculations, the highest accuracy can be obtained by
  # uncommenting the line beginning with "for_aux"  below, thus adding an extra g radial
  # function to the construction of the product basis set for the expansion.
  # See Ref. New J. Phys. 17, 093020 (2015) for more information, particularly Figs. 1 and 6.
  #
  ################################################################################
  #
  # for_aux hydro 5 g 6.0
  
  -----------------------------------------------------------------------
  Completed first pass over input file control.in .
  -----------------------------------------------------------------------
  
  
  -----------------------------------------------------------------------
  Parsing geometry.in (first pass over file, find array dimensions only).
  The contents of geometry.in will be repeated verbatim below
  unless switched off by setting 'verbatim_writeout .false.' .
  in the first line of geometry.in .
  -----------------------------------------------------------------------
  
  atom 0 0 0 H
  atom 0 0 0.66 H
  
  -----------------------------------------------------------------------
  Completed first pass over input file geometry.in .
  -----------------------------------------------------------------------
  

  Basic array size parameters:
  | Number of species                 :        1
  | Number of atoms                   :        2
  | Max. basis fn. angular momentum   :        2
  | Max. atomic/ionic basis occupied n:        1
  | Max. number of basis fn. types    :        2
  | Max. radial fns per species/type  :        6
  | Max. logarithmic grid size        :     1131
  | Max. radial integration grid size :       49
  | Max. angular integration grid size:      434
  | Max. angular grid division number :        8
  | Radial grid for Hartree potential :     1131
  | Number of spin channels           :        2

------------------------------------------------------------
          Reading file control.in.
------------------------------------------------------------
  XC: Using PBE gradient-corrected functionals.
  Spin treatment: Spin density functional theory - collinear spins.
  Initial spin moment per atom set according to Hund's rules.
  Scalar relativistic treatment of kinetic energy: on-site free-atom approximation to ZORA.
  Occupation type: Gaussian broadening, width =   0.100000E-02 eV.
  Charge =   0.000000E+00: Neutral system requested explicitly.
  Using non-empirical van der Waals correction (Hirshfeld partitioning):
  Kohn-Sham eigenvalues and eigenfunctions calculated by the ELPA eigensolver library.
  Using pulay charge density mixing.
  Charge density mixing - mixing parameter:     0.4000
  Spin density mixing - mixing parameter:     0.6000
  Convergence accuracy of self-consistent charge density: 0.1000E-03
  Convergence accuracy of sum of eigenvalues: 0.1000E-04
  Convergence accuracy of total energy: 0.1000E-04
  Maximum number of s.-c. iterations  :   100
  Number of empty states per atom:       10
 
  Reading configuration options for species H                   .
  | Found nuclear charge :   1.0000
  | Found atomic mass :    1.00794000000000      amu
  | Found l_max for Hartree potential  :   6
  | Found cutoff potl. onset [A], width [A], scale factor :    4.00000    2.00000    1.00000
  | Threshold for basis-dependent cutoff potential is   0.100000E-03
  | Found data for basic radial integration grid :    24 points, outermost radius =    7.000 A
  | Found multiplier for basic radial grid :   2
  | Found angular grid specification: user-specified.
  | Specified grid contains     6 separate shells.
  | Check grid settings after all constraints further below.
  | Found free-atom valence shell :  1 s   1.000
  | No ionic wave fns used. Skipping ion_occ.
  | Found hydrogenic basis function :  2 s   2.100
  | Found hydrogenic basis function :  2 p   3.500
  | Found hydrogenic basis function :  1 s   0.850
  | Found hydrogenic basis function :  2 p   3.700
  | Found hydrogenic basis function :  2 s   1.200
  | Found hydrogenic basis function :  3 d   7.000
  Species H                   : Missing cutoff potential type.
  Defaulting to exp(1/x)/(1-x)^2 type cutoff potential.
  Species H : No 'logarithmic' tag. Using default grid for free atom:
  | Default logarithmic grid data [bohr] : 0.1000E-03 0.1000E+03 0.1012E+01
  Species H : On-site basis accuracy parameter (for Gram-Schmidt orthonormalisation) not specified.
  Using default value basis_acc =  0.1000000E-03.
  Species H                   : Using default innermost maximum threshold i_radial=  2 for radial functions.
  Species H                   : Default cutoff onset for free atom density etc. : 0.40000000E+01 AA.
  Species H                   : Basic radial grid will be enhanced according to radial_multiplier =   2, to contain    49 grid points.
 
  Finished reading input file 'control.in'. Consistency checks are next.
 
  Target number of points in a grid batch is not set. Defaulting to  100
  Method for grid partitioning is not set. Defaulting to parallel hash+maxmin partitioning.
  Batch size limit is not set. Defaulting to    200
  By default, will store active basis functions for each batch.
  If in need of memory, prune_basis_once .false. can be used to disable this option.
  communication_type for Hartree potential was not specified.
  Defaulting to calc_hartree .
  Pulay mixer: Number of relevant iterations not set.
  Defaulting to    8 iterations.
  Pulay mixer: Number of initial linear mixing iterations not set.
  Defaulting to    0 iterations.
  Work space size for distributed Hartree potential not set.
  Defaulting to   0.200000E+03 MB.
  Algorithm-dependent basis array size parameters:
  | n_max_pulay                         :        8
  Calculation of forces was not defined in control.in. No forces will be calculated.
  Geometry relaxation not requested: no relaxation will be performed.
  No accuracy limit for integral partition fn. given. Defaulting to 0.1000E-14.
  No threshold value for u(r) in integrations given. Defaulting to 0.1000E-05.
  No accuracy for occupation numbers given. Defaulting to 0.1000E-07.
  No threshold value for occupation numbers given. Defaulting to 0.0000E+00.
  No accuracy for fermi level given. Defaulting to 0.1000E-19.
  Maximum # of iterations to find E_F not set. Defaulting to  200.
  Will not use alltoall communication since running on < 1024 CPUs.
  Threshold for basis singularities not set.
  Default threshold for basis singularities: 0.1000E-04
  partition_type (choice of integration weights) for integrals was not specified.
  | Using a version of the partition function of Stratmann and coworkers ('stratmann_smoother').
  | At each grid point, the set of atoms used to build the partition table is smoothly restricted to
  | only those atoms whose free-atom density would be non-zero at that grid point.
  Partitioning for Hartree potential was not defined. Using partition_type for integrals.
  | Adjusted default value of keyword multip_moments_threshold to:       0.10000000E-11
  | This value may affect high angular momentum components of the Hartree potential in periodic systems.
  No q(lm)/r^(l+1) cutoff set for long-range Hartree potential.
  | Using default value of  0.100000E-09 .
  | Verify using the multipole_threshold keyword.
  Defaulting to new monopole extrapolation.
  Density update method: automatic selection selected.
------------------------------------------------------------


------------------------------------------------------------
          Reading geometry description geometry.in.
------------------------------------------------------------
  Input structure read successfully.
  The structure contains        2 atoms,  and a total of          2.000 electrons.

  Input geometry:
  | No unit cell requested.
  | Atomic structure:
  |       Atom                x [A]            y [A]            z [A]
  |    1: Species H              0.000000         0.000000         0.000000
  |    2: Species H              0.000000         0.000000         0.660000
  |

  | The smallest distance between any two atoms is         0.66000000 AA.
  |
  | The first atom of this pair is atom number                      1 .
  | The second atom of this pair is atom number                     2 .

  Initial moments and charges:
  |  Atom   Moment         Charge        Species
  |     1  (Hund's rule)   0.000000E+00   H
  |     2  (Hund's rule)   0.000000E+00   H

  Structure-dependent array size parameters: 
  | Number of distinct atom types in initial rho :        1
  | Maximum number of distinct radial functions  :        7
  | Maximum number of basis functions            :       30
  | Number of Kohn-Sham states (occupied + empty):       11
------------------------------------------------------------

------------------------------------------------------------
          Preparing all fixed parts of the calculation.
------------------------------------------------------------
  Determining machine precision:
    2.225073858507201E-308
  Setting up grids for atomic and cluster calculations.

  Creating wave function, potential, and density for free atoms.

  Species: H

  List of occupied orbitals and eigenvalues:
    n    l              occ      energy [Ha]    energy [eV]
    1    0           1.0000        -0.238386        -6.4868

  Spin-polarized or charged system:
  Charge density initialized according to selected moments and charges.

  Creating spin-polarized density from free atoms.

  Species: H
  Charge:   0.000000
  applying Hund's rules ...

  List of occupied orbitals and eigenvalues:
    n    l      energy [Ha]    energy [eV]    occupation
  Spin-up
    1    0        -0.278991        -7.5917     1.00000000
  Spin-down
    1    0         0.090850         2.4721     0.00000000

  Creating fixed part of basis set: Ionic, confined, hydrogenic.
 
  H                    hydrogenic:
 
  List of hydrogenic basis orbitals: 
    n    l      effective z      eigenvalue [eV]  inner max. [A]     outer max. [A]     outer radius [A]   
    2    0         2.100000       -14.9965           0.193243           1.317208           5.373006
    2    1         3.500000       -41.6672           0.602369           0.602369           4.056063
    1    0         0.850000        -9.8292           0.624871           0.624871           5.373006
    2    1         3.700000       -46.5653           0.573622           0.573622           3.910002
    2    0         1.200000        -4.5995           0.334980           2.228188           5.505995
    3    2         7.000000       -74.0753           0.680699           0.680699           3.769201
 

  Adding cutoff potential to free-atom effective potential.
  Creating atomic-like basis functions for current effective potential.

  Species H                   :

  List of atomic basis orbitals and eigenvalues:
    n    l      energy [Ha]    energy [eV]    outer radius [A]
    1    0        -0.238386        -6.4868       5.373006

  Assembling full basis from fixed parts.
  | Species H :   atomic orbital   1 s accepted.
  | Species H :    hydro orbital   2 s accepted.
  | Species H :    hydro orbital   1 s accepted.
  | Species H :    hydro orbital   2 s accepted.
  | Species H :    hydro orbital   2 p accepted.
  | Species H :    hydro orbital   2 p accepted.
  | Species H :    hydro orbital   3 d accepted.
 
  Basis size parameters after reduction:
  | Total number of radial functions:        7
  | Total number of basis functions :       30
 
  Testing on-site integration grid accuracy.
  |  Species  Function  <phi|h_atom|phi> (log., in eV)  <phi|h_atom|phi> (rad., in eV)
           1        1                 -6.4870767962                 -6.4871688290
           1        2                 13.5032046589                 13.5028982997
           1        3                 32.8195184817                 32.8119941656
           1        4                 33.8513856511                 33.7670005767 ***
           1        5                 28.8544614965                 28.8544615203
           1        6                 59.6326952547                 59.6327656460
           1        7                 60.2719308513                 60.2719305949
 * Note: Onsite integrals marked "***" above are less accurate than
 * onsite_accuracy_threshold =    0.03000 eV. Usually, this is harmless.
 * When in doubt, tighten the "radial" and/or "radial_multiplier" flags to check.

  Preparing densities etc. for the partition functions (integrals / Hartree potential).

  Preparations completed.
  max(cpu_time)          :      0.077 s.
  Wall clock time (cpu1) :      0.079 s.
------------------------------------------------------------

------------------------------------------------------------
          Begin self-consistency loop: Initialization.

          Date     :  20220120, Time     :  153443.099
------------------------------------------------------------

  Initializing index lists of integration centers etc. from given atomic structure:
  | Number of centers in hartree potential         :         2
  | Number of centers in hartree multipole         :         2
  | Number of centers in electron density summation:         2
  | Number of centers in basis integrals           :         2
  | Number of centers in integrals                 :         2
  Using modified Scalapack Eigenvalue solver (ELPA)
  * Using 8 tasks for Scalapack Eigenvalue solver.
  Detailed listing of tasks and assigned k-points:
  (for non-periodic systems, the "k-point" denotes an internal label only)
   Task     0 k-point     1 on csky029
   Task     1 k-point     1 on csky029
   Task     2 k-point     1 on csky029
   Task     3 k-point     1 on csky029
   Task     4 k-point     1 on csky029
   Task     5 k-point     1 on csky029
   Task     6 k-point     1 on csky029
   Task     7 k-point     1 on csky029
  Tasks:     8 split into      4 X      2 BLACS grid
  Calculating blocksize based on n_basis =           30 max_nprow =            4 max_npcol =            2
  Scalapack blocksize set to:            4
  Required Scalapack workspace - INTEGER:            1 REAL:             1
  Partitioning the integration grid into batches with parallel hashing+maxmin method.
  | Number of batches:      440
  | Maximal batch size:     197
  | Minimal batch size:      49
  | Average batch size:      65.682
  | Standard deviation of batch sizes:      19.140

  Integration load balanced across     8 MPI tasks.
  Work distribution over tasks is as follows:
  Task     0 has       3580 integration points.
  Task     1 has       3616 integration points.
  Task     2 has       3641 integration points.
  Task     3 has       3626 integration points.
  Task     4 has       3584 integration points.
  Task     5 has       3587 integration points.
  Task     6 has       3586 integration points.
  Task     7 has       3680 integration points.
  Initializing partition tables, free-atom densities, potentials, etc. across the integration grid (initialize_grid_storage).
  | initialize_grid_storage: Actual outermost partition radius vs. multipole_radius_free
  | (-- VB: in principle, multipole_radius_free should be larger, hence this output)
  | Species        1: outer_partition_radius =              6.000000000000000 AA, multipole_radius_free =              6.071692442739658 AA.
  | Original list of interatomic distances with           2 x          2 entries is created.
  | Net number of integration points:    28900
  | of which are non-zero points    :    26394
  Obtaining max. number of non-zero basis functions in each batch (get_n_compute_maxes).
  | Maximal number of non-zero basis functions:       30 in task     0
  | Maximal number of non-zero basis functions:       30 in task     1
  | Maximal number of non-zero basis functions:       30 in task     2
  | Maximal number of non-zero basis functions:       30 in task     3
  | Maximal number of non-zero basis functions:       30 in task     4
  | Maximal number of non-zero basis functions:       30 in task     5
  | Maximal number of non-zero basis functions:       30 in task     6
  | Maximal number of non-zero basis functions:       30 in task     7
  Selecting the method for density update.
  Loop over occupied states selected for charge density update.
  Integrating Hamiltonian matrix: batch-based integration.
  Time summed over all CPUs for integration: real work        0.082 s, elapsed        0.088 s
  Integrating overlap matrix.
  Time summed over all CPUs for integration: real work        0.021 s, elapsed        0.026 s
  Deallocating overlap matrix.

  Updating Kohn-Sham eigenvalues, eigenvectors, occupation numbers, and Fermi level.
  Solving generalized eigenproblem
  Solving real symmetric generalised eigenvalue problem by standard ScaLAPACK.
  Transforming overlap matrix with ScaLAPACK and checking for singularities.
  : Overlap matrix is nonsingular, using Cholesky decomposition
  | Lowest eigenvalue:  0.151369E-03
  Factoring overlap matrix with Cholesky decomposition
  Using Cholesky factor for transformation
  Using 1-stage real ELPA solver
  Solving real symmetric generalised eigenvalue problem by standard ScaLAPACK.
  Using Cholesky factor for transformation
  Using 1-stage real ELPA solver
  Determining occupation numbers for Kohn-Sham eigenstates.
  | Chemical potential (Fermi level) in eV                 : -.78328943E+00
  | Error in electron count due to remaining E_F inaccuracy: 0.00000000E+00
  | Maximum occupation number of highest empty state:  0.00E+00

  Writing Kohn-Sham eigenvalues.

  Spin-up eigenvalues:

  State    Occupation    Eigenvalue [Ha]    Eigenvalue [eV]
      1       1.00000          -0.629979          -17.14261
      2       1.00000          -0.038870           -1.05771
      3       0.00000           0.005723            0.15574
      4       0.00000           0.115474            3.14220
      5       0.00000           0.207771            5.65374
      6       0.00000           0.207771            5.65374
      7       0.00000           0.289289            7.87194
      8       0.00000           0.483359           13.15287
      9       0.00000           0.680775           18.52484
     10       0.00000           0.686827           18.68950
     11       0.00000           0.686827           18.68950

  Spin-down eigenvalues:

  State    Occupation    Eigenvalue [Ha]    Eigenvalue [eV]
      1       0.00000           0.099223            2.69998
      2       0.00000           0.115660            3.14727
      3       0.00000           0.504705           13.73373
      4       0.00000           0.533384           14.51411
      5       0.00000           1.161747           31.61275
      6       0.00000           1.161747           31.61275
      7       0.00000           1.198455           32.61162
      8       0.00000           1.521177           41.39332
      9       0.00000           1.521177           41.39332
     10       0.00000           1.576109           42.88810
     11       0.00000           1.694561           46.11135

  Current spin moment of the entire structure :
  | N = N_up - N_down :    2.00
  | S                 :    1.00
  | J                 :    3.00

  Highest occupied state (VBM) at     -1.05771396 eV
  | Occupation number:      1.00000000
  | Spin channel:        1

  Lowest unoccupied state (CBM) at     0.15573950 eV
  | Occupation number:      0.00000000
  | Spin channel:        1

  Overall HOMO-LUMO gap:      1.21345346 eV.
  Calculating total energy contributions from superposition of free atom densities.

  Total energy components:
  | Sum of eigenvalues            :          -0.66884943 Ha         -18.20031906 eV
  | XC energy correction          :          -0.69465906 Ha         -18.90263479 eV
  | XC potential correction       :           0.89653995 Ha          24.39609325 eV
  | Free-atom electrostatic energy:          -0.27211178 Ha          -7.40453828 eV
  | Hartree energy correction     :           0.00000000 Ha           0.00000000 eV
  | van der Waals energy corr.    :           0.00000000 Ha           0.00000000 eV
  | Entropy correction            :           0.00000000 Ha           0.00000000 eV
  | ---------------------------
  | Total energy                  :          -0.73908032 Ha         -20.11139889 eV
  | Total energy, T -> 0          :          -0.73908032 Ha         -20.11139889 eV  <-- do not rely on this value for anything but (periodic) metals
  | Electronic free energy        :          -0.73908032 Ha         -20.11139889 eV

  Derived energy quantities:
  | Kinetic energy                :           1.22785208 Ha          33.41155510 eV
  | Electrostatic energy          :          -1.27227335 Ha         -34.62031920 eV
  | Energy correction for multipole
  | error in Hartree potential    :           0.00000000 Ha           0.00000000 eV
  | Sum of eigenvalues per atom                           :          -9.10015953 eV
  | Total energy (T->0) per atom                          :         -10.05569944 eV  <-- do not rely on this value for anything but (periodic) metals
  | Electronic free energy per atom                       :         -10.05569944 eV
  Initialize hartree_potential_storage
  Max. number of atoms included in rho_multipole:            2

  End scf initialization - timings             :  max(cpu_time)    wall_clock(cpu1)
  | Time for scf. initialization               :        0.041 s           0.042 s
  | Boundary condition initialization          :        0.000 s           0.000 s
  | Integration                                :        0.014 s           0.014 s
  | Solution of K.-S. eqns.                    :        0.007 s           0.007 s
  | Grid partitioning                          :        0.007 s           0.007 s
  | Preloading free-atom quantities on grid    :        0.004 s           0.003 s
  | Free-atom superposition energy             :        0.003 s           0.003 s
  | Total energy evaluation                    :        0.000 s           0.001 s
------------------------------------------------------------

------------------------------------------------------------
          Begin self-consistency iteration #    1

  Date     :  20220120, Time     :  153443.142
------------------------------------------------------------
  Evaluating new KS density.
  Integration grid: deviation in total charge (<rho> - N_e) =   2.252114E-07
  | <rho_up-rho_dn> = N_up-N_dn =      2.0000; <|rho_up-rho_dn|> =      2.1269
  Pulay mixing of updated and previous charge densities.

  Evaluating partitioned Hartree potential by multipole expansion.
  | Analytical far-field extrapolation by fixed multipoles:
  | Hartree multipole sum: apparent total charge =  -0.127757E-04
  Summing up the Hartree potential.
  Time summed over all CPUs for potential: real work        0.040 s, elapsed        0.046 s
  | RMS charge density error from multipole expansion :   0.808498E-03

  Integrating Hamiltonian matrix: batch-based integration.
  Time summed over all CPUs for integration: real work        0.069 s, elapsed        0.077 s

  Updating Kohn-Sham eigenvalues, eigenvectors, occupation numbers, and Fermi level.
  Solving generalized eigenproblem
  Solving real symmetric generalised eigenvalue problem by standard ScaLAPACK.
  Using Cholesky factor for transformation
  Using 1-stage real ELPA solver
  Solving real symmetric generalised eigenvalue problem by standard ScaLAPACK.
  Using Cholesky factor for transformation
  Using 1-stage real ELPA solver
  Determining occupation numbers for Kohn-Sham eigenstates.
  | Chemical potential (Fermi level) in eV                 : -.62374213E+01
  | Error in electron count due to remaining E_F inaccuracy: 0.00000000E+00
  | Maximum occupation number of highest empty state:  0.00E+00

  Writing Kohn-Sham eigenvalues.

  Spin-up eigenvalues:

  State    Occupation    Eigenvalue [Ha]    Eigenvalue [eV]
      1       1.00000          -0.520943          -14.17557
      2       0.00000           0.061855            1.68316
      3       0.00000           0.065455            1.78112
      4       0.00000           0.173805            4.72947
      5       0.00000           0.236314            6.43044
      6       0.00000           0.236314            6.43044
      7       0.00000           0.352719            9.59797
      8       0.00000           0.562583           15.30865
      9       0.00000           0.760981           20.70736
     10       0.00000           0.760981           20.70736
     11       0.00000           0.824529           22.43657

  Spin-down eigenvalues:

  State    Occupation    Eigenvalue [Ha]    Eigenvalue [eV]
      1       1.00000          -0.299934           -8.16162
      2       0.00000           0.084664            2.30382
      3       0.00000           0.090443            2.46108
      4       0.00000           0.247842            6.74411
      5       0.00000           0.346621            9.43205
      6       0.00000           0.346621            9.43205
      7       0.00000           0.415387           11.30325
      8       0.00000           0.688719           18.74101
      9       0.00000           0.850511           23.14359
     10       0.00000           0.850511           23.14359
     11       0.00000           0.886185           24.11433

  Current spin moment of the entire structure :
  | N = N_up - N_down :    0.00
  | S                 :    0.00
  | J                 :    1.00

  Highest occupied state (VBM) at     -8.16162103 eV
  | Occupation number:      1.00000000
  | Spin channel:        2

  Lowest unoccupied state (CBM) at     1.68316102 eV
  | Occupation number:      0.00000000
  | Spin channel:        1

  Overall HOMO-LUMO gap:      9.84478205 eV.

  Total energy components:
  | Sum of eigenvalues            :          -0.82087676 Ha         -22.33719323 eV
  | XC energy correction          :          -0.48750138 Ha         -13.26558756 eV
  | XC potential correction       :           0.62781444 Ha          17.08370007 eV
  | Free-atom electrostatic energy:          -0.27211178 Ha          -7.40453828 eV
  | Hartree energy correction     :           0.02598790 Ha           0.70716675 eV
  | van der Waals energy corr.    :           0.00000000 Ha           0.00000000 eV
  | Entropy correction            :           0.00000000 Ha           0.00000000 eV
  | ---------------------------
  | Total energy                  :          -0.92668759 Ha         -25.21645224 eV
  | Total energy, T -> 0          :          -0.92668759 Ha         -25.21645224 eV  <-- do not rely on this value for anything but (periodic) metals
  | Electronic free energy        :          -0.92668759 Ha         -25.21645224 eV

  Derived energy quantities:
  | Kinetic energy                :           0.88302435 Ha          24.02831519 eV
  | Electrostatic energy          :          -1.32221056 Ha         -35.97917987 eV
  | Energy correction for multipole
  | error in Hartree potential    :          -0.00015645 Ha          -0.00425713 eV
  | Sum of eigenvalues per atom                           :         -11.16859661 eV
  | Total energy (T->0) per atom                          :         -12.60822612 eV  <-- do not rely on this value for anything but (periodic) metals
  | Electronic free energy per atom                       :         -12.60822612 eV

  Self-consistency convergence accuracy:
  | Change of charge/spin density : 0.6156E-01 0.6156E-01
  | Change of sum of eigenvalues  : -.4137E+01 eV
  | Change of total energy        : -.5105E+01 eV

  End self-consistency iteration #     1       :  max(cpu_time)    wall_clock(cpu1)
  | Time for this iteration                    :        0.031 s           0.030 s
  | Charge density update                      :        0.008 s           0.007 s
  | Density mixing                             :        0.001 s           0.000 s
  | Hartree multipole update                   :        0.002 s           0.002 s
  | Hartree multipole summation                :        0.007 s           0.007 s
  | Integration                                :        0.010 s           0.010 s
  | Solution of K.-S. eqns.                    :        0.002 s           0.002 s
  | Total energy evaluation                    :        0.000 s           0.001 s
------------------------------------------------------------

------------------------------------------------------------
          Begin self-consistency iteration #    2

  Date     :  20220120, Time     :  153443.173
------------------------------------------------------------
  Evaluating new KS density.
  Integration grid: deviation in total charge (<rho> - N_e) =   1.351268E-07
  | <rho_up-rho_dn> = N_up-N_dn =     -2.0000; <|rho_up-rho_dn|> =      2.0000
  Pulay mixing of updated and previous charge densities.

  Evaluating partitioned Hartree potential by multipole expansion.
  | Analytical far-field extrapolation by fixed multipoles:
  | Hartree multipole sum: apparent total charge =  -0.126068E-04
  Summing up the Hartree potential.
  Time summed over all CPUs for potential: real work        0.034 s, elapsed        0.040 s
  | RMS charge density error from multipole expansion :   0.793925E-03

  Integrating Hamiltonian matrix: batch-based integration.
  Time summed over all CPUs for integration: real work        0.070 s, elapsed        0.088 s

  Updating Kohn-Sham eigenvalues, eigenvectors, occupation numbers, and Fermi level.
  Solving generalized eigenproblem
  Solving real symmetric generalised eigenvalue problem by standard ScaLAPACK.
  Using Cholesky factor for transformation
  Using 1-stage real ELPA solver
  Solving real symmetric generalised eigenvalue problem by standard ScaLAPACK.
  Using Cholesky factor for transformation
  Using 1-stage real ELPA solver
  Determining occupation numbers for Kohn-Sham eigenstates.
  | Chemical potential (Fermi level) in eV                 : -.83589550E+01
  | Error in electron count due to remaining E_F inaccuracy: 0.00000000E+00
  | Maximum occupation number of highest empty state:  0.00E+00

  Current spin moment of the entire structure :
  | N = N_up - N_down :    0.00
  | S                 :    0.00
  | J                 :    1.00

  Highest occupied state (VBM) at     -9.57932955 eV
  | Occupation number:      1.00000000
  | Spin channel:        2

  Lowest unoccupied state (CBM) at     1.23081630 eV
  | Occupation number:      0.00000000
  | Spin channel:        1

  Overall HOMO-LUMO gap:     10.81014585 eV.

  Total energy components:
  | Sum of eigenvalues            :          -0.96734043 Ha         -26.32267238 eV
  | XC energy correction          :          -0.58109002 Ha         -15.81226389 eV
  | XC potential correction       :           0.75044389 Ha          20.42061736 eV
  | Free-atom electrostatic energy:          -0.27211178 Ha          -7.40453828 eV
  | Hartree energy correction     :           0.02256924 Ha           0.61414021 eV
  | van der Waals energy corr.    :           0.00000000 Ha           0.00000000 eV
  | Entropy correction            :           0.00000000 Ha           0.00000000 eV
  | ---------------------------
  | Total energy                  :          -1.04752909 Ha         -28.50471698 eV
  | Total energy, T -> 0          :          -1.04752909 Ha         -28.50471698 eV  <-- do not rely on this value for anything but (periodic) metals
  | Electronic free energy        :          -1.04752909 Ha         -28.50471698 eV

  Derived energy quantities:
  | Kinetic energy                :           0.85993015 Ha          23.39988994 eV
  | Electrostatic energy          :          -1.32636923 Ha         -36.09234302 eV
  | Energy correction for multipole
  | error in Hartree potential    :          -0.00015328 Ha          -0.00417098 eV
  | Sum of eigenvalues per atom                           :         -13.16133619 eV
  | Total energy (T->0) per atom                          :         -14.25235849 eV  <-- do not rely on this value for anything but (periodic) metals
  | Electronic free energy per atom                       :         -14.25235849 eV

  Self-consistency convergence accuracy:
  | Change of charge/spin density : 0.1234E+00 0.2891E+00
  | Change of sum of eigenvalues  : -.3985E+01 eV
  | Change of total energy        : -.3288E+01 eV

  End self-consistency iteration #     2       :  max(cpu_time)    wall_clock(cpu1)
  | Time for this iteration                    :        0.030 s           0.031 s
  | Charge density update                      :        0.008 s           0.008 s
  | Density mixing                             :        0.001 s           0.001 s
  | Hartree multipole update                   :        0.001 s           0.001 s
  | Hartree multipole summation                :        0.005 s           0.005 s
  | Integration                                :        0.011 s           0.011 s
  | Solution of K.-S. eqns.                    :        0.002 s           0.002 s
  | Total energy evaluation                    :        0.000 s           0.000 s
------------------------------------------------------------

------------------------------------------------------------
          Begin self-consistency iteration #    3

  Date     :  20220120, Time     :  153443.209
------------------------------------------------------------
  Evaluating new KS density.
  Integration grid: deviation in total charge (<rho> - N_e) =   1.333933E-07
  | <rho_up-rho_dn> = N_up-N_dn =     -1.9615; <|rho_up-rho_dn|> =      1.9615
  Pulay mixing of updated and previous charge densities.

  Evaluating partitioned Hartree potential by multipole expansion.
  | Analytical far-field extrapolation by fixed multipoles:
  | Hartree multipole sum: apparent total charge =  -0.126550E-04
  Summing up the Hartree potential.
  Time summed over all CPUs for potential: real work        0.034 s, elapsed        0.042 s
  | RMS charge density error from multipole expansion :   0.767231E-03

  Integrating Hamiltonian matrix: batch-based integration.
  Time summed over all CPUs for integration: real work        0.070 s, elapsed        0.088 s

  Updating Kohn-Sham eigenvalues, eigenvectors, occupation numbers, and Fermi level.
  Solving generalized eigenproblem
  Solving real symmetric generalised eigenvalue problem by standard ScaLAPACK.
  Using Cholesky factor for transformation
  Using 1-stage real ELPA solver
  Solving real symmetric generalised eigenvalue problem by standard ScaLAPACK.
  Using Cholesky factor for transformation
  Using 1-stage real ELPA solver
  Determining occupation numbers for Kohn-Sham eigenstates.
  | Chemical potential (Fermi level) in eV                 : -.76210402E+01
  | Error in electron count due to remaining E_F inaccuracy: 0.00000000E+00
  | Maximum occupation number of highest empty state:  0.00E+00

  Current spin moment of the entire structure :
  | N = N_up - N_down :    0.00
  | S                 :    0.00
  | J                 :    1.00

  Highest occupied state (VBM) at     -9.17776840 eV
  | Occupation number:      1.00000000
  | Spin channel:        2

  Lowest unoccupied state (CBM) at     1.24923637 eV
  | Occupation number:      0.00000000
  | Spin channel:        1

  Overall HOMO-LUMO gap:     10.42700478 eV.

  Total energy components:
  | Sum of eigenvalues            :          -0.91812274 Ha         -24.98339095 eV
  | XC energy correction          :          -0.55071205 Ha         -14.98563746 eV
  | XC potential correction       :           0.71042712 Ha          19.33170561 eV
  | Free-atom electrostatic energy:          -0.27211178 Ha          -7.40453828 eV
  | Hartree energy correction     :           0.02674321 Ha           0.72771990 eV
  | van der Waals energy corr.    :           0.00000000 Ha           0.00000000 eV
  | Entropy correction            :           0.00000000 Ha           0.00000000 eV
  | ---------------------------
  | Total energy                  :          -1.00377624 Ha         -27.31414118 eV
  | Total energy, T -> 0          :          -1.00377624 Ha         -27.31414118 eV  <-- do not rely on this value for anything but (periodic) metals
  | Electronic free energy        :          -1.00377624 Ha         -27.31414118 eV

  Derived energy quantities:
  | Kinetic energy                :           0.86357503 Ha          23.49907209 eV
  | Electrostatic energy          :          -1.31663921 Ha         -35.82757581 eV
  | Energy correction for multipole
  | error in Hartree potential    :          -0.00014590 Ha          -0.00397023 eV
  | Sum of eigenvalues per atom                           :         -12.49169548 eV
  | Total energy (T->0) per atom                          :         -13.65707059 eV  <-- do not rely on this value for anything but (periodic) metals
  | Electronic free energy per atom                       :         -13.65707059 eV

  Self-consistency convergence accuracy:
  | Change of charge/spin density : 0.1754E+00 0.2740E+00
  | Change of sum of eigenvalues  : 0.1339E+01 eV
  | Change of total energy        : 0.1191E+01 eV

  End self-consistency iteration #     3       :  max(cpu_time)    wall_clock(cpu1)
  | Time for this iteration                    :        0.034 s           0.029 s
  | Charge density update                      :        0.010 s           0.006 s
  | Density mixing                             :        0.002 s           0.002 s
  | Hartree multipole update                   :        0.001 s           0.001 s
  | Hartree multipole summation                :        0.005 s           0.006 s
  | Integration                                :        0.011 s           0.011 s
  | Solution of K.-S. eqns.                    :        0.002 s           0.002 s
  | Total energy evaluation                    :        0.000 s           0.000 s
------------------------------------------------------------

------------------------------------------------------------
          Begin self-consistency iteration #    4

  Date     :  20220120, Time     :  153443.240
------------------------------------------------------------
  Evaluating new KS density.
  Integration grid: deviation in total charge (<rho> - N_e) =   1.334779E-07
  | <rho_up-rho_dn> = N_up-N_dn =     -1.9623; <|rho_up-rho_dn|> =      1.9623
  Pulay mixing of updated and previous charge densities.

  Evaluating partitioned Hartree potential by multipole expansion.
  | Analytical far-field extrapolation by fixed multipoles:
  | Hartree multipole sum: apparent total charge =  -0.124026E-04
  Summing up the Hartree potential.
  Time summed over all CPUs for potential: real work        0.034 s, elapsed        0.040 s
  | RMS charge density error from multipole expansion :   0.627558E-03

  Integrating Hamiltonian matrix: batch-based integration.
  Time summed over all CPUs for integration: real work        0.069 s, elapsed        0.079 s

  Updating Kohn-Sham eigenvalues, eigenvectors, occupation numbers, and Fermi level.
  Solving generalized eigenproblem
  Solving real symmetric generalised eigenvalue problem by standard ScaLAPACK.
  Using Cholesky factor for transformation
  Using 1-stage real ELPA solver
  Solving real symmetric generalised eigenvalue problem by standard ScaLAPACK.
  Using Cholesky factor for transformation
  Using 1-stage real ELPA solver
  Determining occupation numbers for Kohn-Sham eigenstates.
  | Chemical potential (Fermi level) in eV                 : -.76104049E+01
  | Error in electron count due to remaining E_F inaccuracy: 0.00000000E+00
  | Maximum occupation number of highest empty state:  0.00E+00

  Current spin moment of the entire structure :
  | N = N_up - N_down :    0.00
  | S                 :    0.00
  | J                 :    1.00

  Highest occupied state (VBM) at    -10.11406765 eV
  | Occupation number:      1.00000000
  | Spin channel:        2

  Lowest unoccupied state (CBM) at     0.61311828 eV
  | Occupation number:      0.00000000
  | Spin channel:        1

  Overall HOMO-LUMO gap:     10.72718593 eV.

  Total energy components:
  | Sum of eigenvalues            :          -0.94134180 Ha         -25.61521371 eV
  | XC energy correction          :          -0.54467594 Ha         -14.82138648 eV
  | XC potential correction       :           0.70206393 Ha          19.10413155 eV
  | Free-atom electrostatic energy:          -0.27211178 Ha          -7.40453828 eV
  | Hartree energy correction     :           0.04026834 Ha           1.09575732 eV
  | van der Waals energy corr.    :           0.00000000 Ha           0.00000000 eV
  | Entropy correction            :           0.00000000 Ha           0.00000000 eV
  | ---------------------------
  | Total energy                  :          -1.01579725 Ha         -27.64124959 eV
  | Total energy, T -> 0          :          -1.01579725 Ha         -27.64124959 eV  <-- do not rely on this value for anything but (periodic) metals
  | Electronic free energy        :          -1.01579725 Ha         -27.64124959 eV

  Derived energy quantities:
  | Kinetic energy                :           0.78912082 Ha          21.47306998 eV
  | Electrostatic energy          :          -1.26024213 Ha         -34.29293309 eV
  | Energy correction for multipole
  | error in Hartree potential    :          -0.00008885 Ha          -0.00241769 eV
  | Sum of eigenvalues per atom                           :         -12.80760685 eV
  | Total energy (T->0) per atom                          :         -13.82062480 eV  <-- do not rely on this value for anything but (periodic) metals
  | Electronic free energy per atom                       :         -13.82062480 eV

  Self-consistency convergence accuracy:
  | Change of charge/spin density : 0.1538E+00 0.2777E+00
  | Change of sum of eigenvalues  : -.6318E+00 eV
  | Change of total energy        : -.3271E+00 eV

  End self-consistency iteration #     4       :  max(cpu_time)    wall_clock(cpu1)
  | Time for this iteration                    :        0.029 s           0.029 s
  | Charge density update                      :        0.007 s           0.007 s
  | Density mixing                             :        0.002 s           0.002 s
  | Hartree multipole update                   :        0.002 s           0.001 s
  | Hartree multipole summation                :        0.005 s           0.006 s
  | Integration                                :        0.010 s           0.010 s
  | Solution of K.-S. eqns.                    :        0.002 s           0.002 s
  | Total energy evaluation                    :        0.000 s           0.001 s
------------------------------------------------------------

------------------------------------------------------------
          Begin self-consistency iteration #    5

  Date     :  20220120, Time     :  153443.271
------------------------------------------------------------
  Evaluating new KS density.
  Integration grid: deviation in total charge (<rho> - N_e) =   1.275698E-07
  | <rho_up-rho_dn> = N_up-N_dn =     -1.8497; <|rho_up-rho_dn|> =      1.8497
  Pulay mixing of updated and previous charge densities.

  Evaluating partitioned Hartree potential by multipole expansion.
  | Analytical far-field extrapolation by fixed multipoles:
  | Hartree multipole sum: apparent total charge =  -0.109997E-04
  Summing up the Hartree potential.
  Time summed over all CPUs for potential: real work        0.033 s, elapsed        0.034 s
  | RMS charge density error from multipole expansion :   0.197601E-02

  Integrating Hamiltonian matrix: batch-based integration.
  Time summed over all CPUs for integration: real work        0.069 s, elapsed        0.074 s

  Updating Kohn-Sham eigenvalues, eigenvectors, occupation numbers, and Fermi level.
  Solving generalized eigenproblem
  Solving real symmetric generalised eigenvalue problem by standard ScaLAPACK.
  Using Cholesky factor for transformation
  Using 1-stage real ELPA solver
  Solving real symmetric generalised eigenvalue problem by standard ScaLAPACK.
  Using Cholesky factor for transformation
  Using 1-stage real ELPA solver
  Determining occupation numbers for Kohn-Sham eigenstates.
  | Chemical potential (Fermi level) in eV                 : -.13880431E+02
  | Error in electron count due to remaining E_F inaccuracy: 0.00000000E+00
  | Maximum occupation number of highest empty state:  0.00E+00

  Current spin moment of the entire structure :
  | N = N_up - N_down :    0.00
  | S                 :    0.00
  | J                 :    1.00

  Highest occupied state (VBM) at    -14.20467566 eV
  | Occupation number:      1.00000000
  | Spin channel:        2

  Lowest unoccupied state (CBM) at    -0.88380615 eV
  | Occupation number:      0.00000000
  | Spin channel:        1

  Overall HOMO-LUMO gap:     13.32086950 eV.

  Total energy components:
  | Sum of eigenvalues            :          -1.12829044 Ha         -30.70234490 eV
  | XC energy correction          :          -0.56754641 Ha         -15.44372365 eV
  | XC potential correction       :           0.72923365 Ha          19.84345719 eV
  | Free-atom electrostatic energy:          -0.27211178 Ha          -7.40453828 eV
  | Hartree energy correction     :           0.11977849 Ha           3.25933842 eV
  | van der Waals energy corr.    :           0.00000000 Ha           0.00000000 eV
  | Entropy correction            :           0.00000000 Ha           0.00000000 eV
  | ---------------------------
  | Total energy                  :          -1.11893650 Ha         -30.44781120 eV
  | Total energy, T -> 0          :          -1.11893650 Ha         -30.44781120 eV  <-- do not rely on this value for anything but (periodic) metals
  | Electronic free energy        :          -1.11893650 Ha         -30.44781120 eV

  Derived energy quantities:
  | Kinetic energy                :           0.16343097 Ha           4.44718294 eV
  | Electrostatic energy          :          -0.71482105 Ha         -19.45127049 eV
  | Energy correction for multipole
  | error in Hartree potential    :           0.00036453 Ha           0.00991942 eV
  | Sum of eigenvalues per atom                           :         -15.35117245 eV
  | Total energy (T->0) per atom                          :         -15.22390560 eV  <-- do not rely on this value for anything but (periodic) metals
  | Electronic free energy per atom                       :         -15.22390560 eV

  Self-consistency convergence accuracy:
  | Change of charge/spin density : 0.1630E+00 0.2644E+00
  | Change of sum of eigenvalues  : -.5087E+01 eV
  | Change of total energy        : -.2807E+01 eV

  End self-consistency iteration #     5       :  max(cpu_time)    wall_clock(cpu1)
  | Time for this iteration                    :        0.026 s           0.026 s
  | Charge density update                      :        0.007 s           0.006 s
  | Density mixing                             :        0.001 s           0.001 s
  | Hartree multipole update                   :        0.001 s           0.002 s
  | Hartree multipole summation                :        0.005 s           0.004 s
  | Integration                                :        0.009 s           0.010 s
  | Solution of K.-S. eqns.                    :        0.002 s           0.001 s
  | Total energy evaluation                    :        0.000 s           0.000 s
------------------------------------------------------------

------------------------------------------------------------
          Begin self-consistency iteration #    6

  Date     :  20220120, Time     :  153443.299
------------------------------------------------------------
  Evaluating new KS density.
  Integration grid: deviation in total charge (<rho> - N_e) =   8.396498E-08
  | <rho_up-rho_dn> = N_up-N_dn =     -1.1099; <|rho_up-rho_dn|> =      1.1705
  Pulay mixing of updated and previous charge densities.

  Evaluating partitioned Hartree potential by multipole expansion.
  | Analytical far-field extrapolation by fixed multipoles:
  | Hartree multipole sum: apparent total charge =  -0.987028E-05
  Summing up the Hartree potential.
  Time summed over all CPUs for potential: real work        0.034 s, elapsed        0.035 s
  | RMS charge density error from multipole expansion :   0.469740E-02

  Integrating Hamiltonian matrix: batch-based integration.
  Time summed over all CPUs for integration: real work        0.075 s, elapsed        0.079 s

  Updating Kohn-Sham eigenvalues, eigenvectors, occupation numbers, and Fermi level.
  Solving generalized eigenproblem
  Solving real symmetric generalised eigenvalue problem by standard ScaLAPACK.
  Using Cholesky factor for transformation
  Using 1-stage real ELPA solver
  Solving real symmetric generalised eigenvalue problem by standard ScaLAPACK.
  Using Cholesky factor for transformation
  Using 1-stage real ELPA solver
  Determining occupation numbers for Kohn-Sham eigenstates.
  | Chemical potential (Fermi level) in eV                 : -.16216992E+02
  | Error in electron count due to remaining E_F inaccuracy: 0.00000000E+00
  | Maximum occupation number of highest empty state:  0.00E+00

  Current spin moment of the entire structure :
  | N = N_up - N_down :    0.00
  | S                 :    0.00
  | J                 :    1.00

  Highest occupied state (VBM) at    -17.92354233 eV
  | Occupation number:      1.00000000
  | Spin channel:        2

  Lowest unoccupied state (CBM) at    -1.94650223 eV
  | Occupation number:      0.00000000
  | Spin channel:        1

  Overall HOMO-LUMO gap:     15.97704009 eV.

  Total energy components:
  | Sum of eigenvalues            :          -1.35329561 Ha         -36.82504712 eV
  | XC energy correction          :          -0.66860534 Ha         -18.19367686 eV
  | XC potential correction       :           0.85892045 Ha          23.37241474 eV
  | Free-atom electrostatic energy:          -0.27211178 Ha          -7.40453828 eV
  | Hartree energy correction     :           0.12767115 Ha           3.47410878 eV
  | van der Waals energy corr.    :           0.00000000 Ha           0.00000000 eV
  | Entropy correction            :           0.00000000 Ha           0.00000000 eV
  | ---------------------------
  | Total energy                  :          -1.30742112 Ha         -35.57673873 eV
  | Total energy, T -> 0          :          -1.30742112 Ha         -35.57673873 eV  <-- do not rely on this value for anything but (periodic) metals
  | Electronic free energy        :          -1.30742112 Ha         -35.57673873 eV

  Derived energy quantities:
  | Kinetic energy                :          -0.77140222 Ha         -20.99092241 eV
  | Electrostatic energy          :           0.13258644 Ha           3.60786054 eV
  | Energy correction for multipole
  | error in Hartree potential    :           0.00101628 Ha           0.02765441 eV
  | Sum of eigenvalues per atom                           :         -18.41252356 eV
  | Total energy (T->0) per atom                          :         -17.78836937 eV  <-- do not rely on this value for anything but (periodic) metals
  | Electronic free energy per atom                       :         -17.78836937 eV

  Self-consistency convergence accuracy:
  | Change of charge/spin density : 0.3949E+00 0.1514E+00
  | Change of sum of eigenvalues  : -.6123E+01 eV
  | Change of total energy        : -.5129E+01 eV

  End self-consistency iteration #     6       :  max(cpu_time)    wall_clock(cpu1)
  | Time for this iteration                    :        0.029 s           0.029 s
  | Charge density update                      :        0.007 s           0.007 s
  | Density mixing                             :        0.002 s           0.002 s
  | Hartree multipole update                   :        0.001 s           0.002 s
  | Hartree multipole summation                :        0.005 s           0.005 s
  | Integration                                :        0.010 s           0.010 s
  | Solution of K.-S. eqns.                    :        0.002 s           0.002 s
  | Total energy evaluation                    :        0.000 s           0.001 s
------------------------------------------------------------

------------------------------------------------------------
          Begin self-consistency iteration #    7

  Date     :  20220120, Time     :  153443.330
------------------------------------------------------------
  Evaluating new KS density.
  Integration grid: deviation in total charge (<rho> - N_e) =   3.721498E-08
  | <rho_up-rho_dn> = N_up-N_dn =     -0.3576; <|rho_up-rho_dn|> =      0.9441
  Pulay mixing of updated and previous charge densities.

  Evaluating partitioned Hartree potential by multipole expansion.
  | Analytical far-field extrapolation by fixed multipoles:
  | Hartree multipole sum: apparent total charge =  -0.100559E-04
  Summing up the Hartree potential.
  Time summed over all CPUs for potential: real work        0.034 s, elapsed        0.036 s
  | RMS charge density error from multipole expansion :   0.512655E-02

  Integrating Hamiltonian matrix: batch-based integration.
  Time summed over all CPUs for integration: real work        0.075 s, elapsed        0.079 s

  Updating Kohn-Sham eigenvalues, eigenvectors, occupation numbers, and Fermi level.
  Solving generalized eigenproblem
  Solving real symmetric generalised eigenvalue problem by standard ScaLAPACK.
  Using Cholesky factor for transformation
  Using 1-stage real ELPA solver
  Solving real symmetric generalised eigenvalue problem by standard ScaLAPACK.
  Using Cholesky factor for transformation
  Using 1-stage real ELPA solver
  Determining occupation numbers for Kohn-Sham eigenstates.
  | Chemical potential (Fermi level) in eV                 : -.17005948E+02
  | Error in electron count due to remaining E_F inaccuracy: 0.00000000E+00
  | Maximum occupation number of highest empty state:  0.00E+00

  Current spin moment of the entire structure :
  | N = N_up - N_down :    0.00
  | S                 :    0.00
  | J                 :    1.00

  Highest occupied state (VBM) at    -18.66476341 eV
  | Occupation number:      1.00000000
  | Spin channel:        2

  Lowest unoccupied state (CBM) at    -2.19647996 eV
  | Occupation number:      0.00000000
  | Spin channel:        1

  Overall HOMO-LUMO gap:     16.46828345 eV.

  Total energy components:
  | Sum of eigenvalues            :          -1.41096870 Ha         -38.39441176 eV
  | XC energy correction          :          -0.68129336 Ha         -18.53893555 eV
  | XC potential correction       :           0.87531712 Ha          23.81859058 eV
  | Free-atom electrostatic energy:          -0.27211178 Ha          -7.40453828 eV
  | Hartree energy correction     :           0.12740324 Ha           3.46681847 eV
  | van der Waals energy corr.    :           0.00000000 Ha           0.00000000 eV
  | Entropy correction            :           0.00000000 Ha           0.00000000 eV
  | ---------------------------
  | Total energy                  :          -1.36165349 Ha         -37.05247654 eV
  | Total energy, T -> 0          :          -1.36165349 Ha         -37.05247654 eV  <-- do not rely on this value for anything but (periodic) metals
  | Electronic free energy        :          -1.36165349 Ha         -37.05247654 eV

  Derived energy quantities:
  | Kinetic energy                :          -0.96554135 Ha         -26.27371690 eV
  | Electrostatic energy          :           0.28518122 Ha           7.76017591 eV
  | Energy correction for multipole
  | error in Hartree potential    :           0.00112925 Ha           0.03072854 eV
  | Sum of eigenvalues per atom                           :         -19.19720588 eV
  | Total energy (T->0) per atom                          :         -18.52623827 eV  <-- do not rely on this value for anything but (periodic) metals
  | Electronic free energy per atom                       :         -18.52623827 eV

  Self-consistency convergence accuracy:
  | Change of charge/spin density : 0.7201E+00 0.2516E+00
  | Change of sum of eigenvalues  : -.1569E+01 eV
  | Change of total energy        : -.1476E+01 eV

  End self-consistency iteration #     7       :  max(cpu_time)    wall_clock(cpu1)
  | Time for this iteration                    :        0.029 s           0.029 s
  | Charge density update                      :        0.008 s           0.007 s
  | Density mixing                             :        0.002 s           0.002 s
  | Hartree multipole update                   :        0.001 s           0.002 s
  | Hartree multipole summation                :        0.005 s           0.005 s
  | Integration                                :        0.010 s           0.010 s
  | Solution of K.-S. eqns.                    :        0.002 s           0.002 s
  | Total energy evaluation                    :        0.000 s           0.001 s
------------------------------------------------------------

------------------------------------------------------------
          Begin self-consistency iteration #    8

  Date     :  20220120, Time     :  153443.360
------------------------------------------------------------
  Evaluating new KS density.
  Integration grid: deviation in total charge (<rho> - N_e) =   3.432788E-08
  | <rho_up-rho_dn> = N_up-N_dn =     -0.3214; <|rho_up-rho_dn|> =      0.9512
  Pulay mixing of updated and previous charge densities.

  Evaluating partitioned Hartree potential by multipole expansion.
  | Analytical far-field extrapolation by fixed multipoles:
  | Hartree multipole sum: apparent total charge =  -0.134867E-04
  Summing up the Hartree potential.
  Time summed over all CPUs for potential: real work        0.033 s, elapsed        0.034 s
  | RMS charge density error from multipole expansion :   0.103895E-01

  Integrating Hamiltonian matrix: batch-based integration.
  Time summed over all CPUs for integration: real work        0.074 s, elapsed        0.080 s

  Updating Kohn-Sham eigenvalues, eigenvectors, occupation numbers, and Fermi level.
  Solving generalized eigenproblem
  Solving real symmetric generalised eigenvalue problem by standard ScaLAPACK.
  Using Cholesky factor for transformation
  Using 1-stage real ELPA solver
  Solving real symmetric generalised eigenvalue problem by standard ScaLAPACK.
  Using Cholesky factor for transformation
  Using 1-stage real ELPA solver
  Determining occupation numbers for Kohn-Sham eigenstates.
  | Chemical potential (Fermi level) in eV                 : -.27989361E+02
  | Error in electron count due to remaining E_F inaccuracy: 0.00000000E+00
  | Maximum occupation number of highest empty state:  0.00E+00

  Current spin moment of the entire structure :
  | N = N_up - N_down :    0.00
  | S                 :    0.00
  | J                 :    1.00

  Highest occupied state (VBM) at    -30.32454611 eV
  | Occupation number:      1.00000000
  | Spin channel:        2

  Lowest unoccupied state (CBM) at    -6.13318006 eV
  | Occupation number:      0.00000000
  | Spin channel:        1

  Overall HOMO-LUMO gap:     24.19136605 eV.

  Total energy components:
  | Sum of eigenvalues            :          -2.26608411 Ha         -61.66328614 eV
  | XC energy correction          :          -0.91003477 Ha         -24.76330593 eV
  | XC potential correction       :           1.17085317 Ha          31.86053579 eV
  | Free-atom electrostatic energy:          -0.27211178 Ha          -7.40453828 eV
  | Hartree energy correction     :          -0.21308012 Ha          -5.79820520 eV
  | van der Waals energy corr.    :           0.00000000 Ha           0.00000000 eV
  | Entropy correction            :           0.00000000 Ha           0.00000000 eV
  | ---------------------------
  | Total energy                  :          -2.49045762 Ha         -67.76879976 eV
  | Total energy, T -> 0          :          -2.49045762 Ha         -67.76879976 eV  <-- do not rely on this value for anything but (periodic) metals
  | Electronic free energy        :          -2.49045762 Ha         -67.76879976 eV

  Derived energy quantities:
  | Kinetic energy                :          -4.08221972 Ha        -111.08285045 eV
  | Electrostatic energy          :           2.50179687 Ha          68.07735661 eV
  | Energy correction for multipole
  | error in Hartree potential    :           0.00243825 Ha           0.06634816 eV
  | Sum of eigenvalues per atom                           :         -30.83164307 eV
  | Total energy (T->0) per atom                          :         -33.88439988 eV  <-- do not rely on this value for anything but (periodic) metals
  | Electronic free energy per atom                       :         -33.88439988 eV

  Self-consistency convergence accuracy:
  | Change of charge/spin density : 0.7724E+00 0.2664E+00
  | Change of sum of eigenvalues  : -.2327E+02 eV
  | Change of total energy        : -.3072E+02 eV

  End self-consistency iteration #     8       :  max(cpu_time)    wall_clock(cpu1)
  | Time for this iteration                    :        0.029 s           0.029 s
  | Charge density update                      :        0.007 s           0.008 s
  | Density mixing                             :        0.002 s           0.002 s
  | Hartree multipole update                   :        0.001 s           0.001 s
  | Hartree multipole summation                :        0.005 s           0.005 s
  | Integration                                :        0.010 s           0.010 s
  | Solution of K.-S. eqns.                    :        0.002 s           0.002 s
  | Total energy evaluation                    :        0.000 s           0.000 s
------------------------------------------------------------

------------------------------------------------------------
          Begin self-consistency iteration #    9

  Date     :  20220120, Time     :  153443.391
------------------------------------------------------------
  Evaluating new KS density.
  Integration grid: deviation in total charge (<rho> - N_e) =   9.130865E-09
  | <rho_up-rho_dn> = N_up-N_dn =     -0.0602; <|rho_up-rho_dn|> =      1.4589
  Pulay mixing of updated and previous charge densities.

  Evaluating partitioned Hartree potential by multipole expansion.
  | Analytical far-field extrapolation by fixed multipoles:
  | Hartree multipole sum: apparent total charge =  -0.144929E-04
  Summing up the Hartree potential.
  Time summed over all CPUs for potential: real work        0.037 s, elapsed        0.044 s
  | RMS charge density error from multipole expansion :   0.113745E-01

  Integrating Hamiltonian matrix: batch-based integration.
  Time summed over all CPUs for integration: real work        0.076 s, elapsed        0.086 s

  Updating Kohn-Sham eigenvalues, eigenvectors, occupation numbers, and Fermi level.
  Solving generalized eigenproblem
  Solving real symmetric generalised eigenvalue problem by standard ScaLAPACK.
  Using Cholesky factor for transformation
  Using 1-stage real ELPA solver
  Solving real symmetric generalised eigenvalue problem by standard ScaLAPACK.
  Using Cholesky factor for transformation
  Using 1-stage real ELPA solver
  Determining occupation numbers for Kohn-Sham eigenstates.
  | Chemical potential (Fermi level) in eV                 : -.30458268E+02
  | Error in electron count due to remaining E_F inaccuracy: 0.00000000E+00
  | Maximum occupation number of highest empty state:  0.00E+00

  Current spin moment of the entire structure :
  | N = N_up - N_down :    0.00
  | S                 :    0.00
  | J                 :    1.00

  Highest occupied state (VBM) at    -33.10021014 eV
  | Occupation number:      1.00000000
  | Spin channel:        2

  Lowest unoccupied state (CBM) at    -7.12553601 eV
  | Occupation number:      0.00000000
  | Spin channel:        1

  Overall HOMO-LUMO gap:     25.97467413 eV.

  Total energy components:
  | Sum of eigenvalues            :          -2.46791558 Ha         -67.15539971 eV
  | XC energy correction          :          -0.96818939 Ha         -26.34577379 eV
  | XC potential correction       :           1.24609803 Ha          33.90805260 eV
  | Free-atom electrostatic energy:          -0.27211178 Ha          -7.40453828 eV
  | Hartree energy correction     :          -0.36541024 Ha          -9.94331858 eV
  | van der Waals energy corr.    :           0.00000000 Ha           0.00000000 eV
  | Entropy correction            :           0.00000000 Ha           0.00000000 eV
  | ---------------------------
  | Total energy                  :          -2.82752896 Ha         -76.94097775 eV
  | Total energy, T -> 0          :          -2.82752896 Ha         -76.94097775 eV  <-- do not rely on this value for anything but (periodic) metals
  | Electronic free energy        :          -2.82752896 Ha         -76.94097775 eV

  Derived energy quantities:
  | Kinetic energy                :          -4.89402195 Ha        -133.17311308 eV
  | Electrostatic energy          :           3.03468238 Ha          82.57790912 eV
  | Energy correction for multipole
  | error in Hartree potential    :           0.00265535 Ha           0.07225580 eV
  | Sum of eigenvalues per atom                           :         -33.57769985 eV
  | Total energy (T->0) per atom                          :         -38.47048887 eV  <-- do not rely on this value for anything but (periodic) metals
  | Electronic free energy per atom                       :         -38.47048887 eV

  Self-consistency convergence accuracy:
  | Change of charge/spin density : 0.1452E+01 0.4851E+00
  | Change of sum of eigenvalues  : -.5492E+01 eV
  | Change of total energy        : -.9172E+01 eV

  End self-consistency iteration #     9       :  max(cpu_time)    wall_clock(cpu1)
  | Time for this iteration                    :        0.030 s           0.030 s
  | Charge density update                      :        0.007 s           0.007 s
  | Density mixing                             :        0.002 s           0.002 s
  | Hartree multipole update                   :        0.001 s           0.002 s
  | Hartree multipole summation                :        0.006 s           0.006 s
  | Integration                                :        0.011 s           0.011 s
  | Solution of K.-S. eqns.                    :        0.001 s           0.001 s
  | Total energy evaluation                    :        0.000 s           0.001 s
------------------------------------------------------------

------------------------------------------------------------
          Begin self-consistency iteration #   10

  Date     :  20220120, Time     :  153443.423
------------------------------------------------------------
  Evaluating new KS density.
  Integration grid: deviation in total charge (<rho> - N_e) =   6.694282E-09
  | <rho_up-rho_dn> = N_up-N_dn =     -0.0135; <|rho_up-rho_dn|> =      1.6207
  Pulay mixing of updated and previous charge densities.

  Evaluating partitioned Hartree potential by multipole expansion.
  | Analytical far-field extrapolation by fixed multipoles:
  | Hartree multipole sum: apparent total charge =  -0.134148E-04
  Summing up the Hartree potential.
  Time summed over all CPUs for potential: real work        0.034 s, elapsed        0.036 s
  | RMS charge density error from multipole expansion :   0.105899E-01

  Integrating Hamiltonian matrix: batch-based integration.
  Time summed over all CPUs for integration: real work        0.075 s, elapsed        0.084 s

  Updating Kohn-Sham eigenvalues, eigenvectors, occupation numbers, and Fermi level.
  Solving generalized eigenproblem
  Solving real symmetric generalised eigenvalue problem by standard ScaLAPACK.
  Using Cholesky factor for transformation
  Using 1-stage real ELPA solver
  Solving real symmetric generalised eigenvalue problem by standard ScaLAPACK.
  Using Cholesky factor for transformation
  Using 1-stage real ELPA solver
  Determining occupation numbers for Kohn-Sham eigenstates.
  | Chemical potential (Fermi level) in eV                 : -.28417187E+02
  | Error in electron count due to remaining E_F inaccuracy: 0.00000000E+00
  | Maximum occupation number of highest empty state:  0.00E+00

  Current spin moment of the entire structure :
  | N = N_up - N_down :    0.00
  | S                 :    0.00
  | J                 :    1.00

  Highest occupied state (VBM) at    -30.83918020 eV
  | Occupation number:      1.00000000
  | Spin channel:        2

  Lowest unoccupied state (CBM) at    -6.28162110 eV
  | Occupation number:      0.00000000
  | Spin channel:        1

  Overall HOMO-LUMO gap:     24.55755911 eV.

  Total energy components:
  | Sum of eigenvalues            :          -2.30189861 Ha         -62.63784828 eV
  | XC energy correction          :          -0.93167568 Ha         -25.35218516 eV
  | XC potential correction       :           1.19873979 Ha          32.61936941 eV
  | Free-atom electrostatic energy:          -0.27211178 Ha          -7.40453828 eV
  | Hartree energy correction     :          -0.25617825 Ha          -6.97096488 eV
  | van der Waals energy corr.    :           0.00000000 Ha           0.00000000 eV
  | Entropy correction            :           0.00000000 Ha           0.00000000 eV
  | ---------------------------
  | Total energy                  :          -2.56312453 Ha         -69.74616719 eV
  | Total energy, T -> 0          :          -2.56312453 Ha         -69.74616719 eV  <-- do not rely on this value for anything but (periodic) metals
  | Electronic free energy        :          -2.56312453 Ha         -69.74616719 eV

  Derived energy quantities:
  | Kinetic energy                :          -4.24589003 Ha        -115.53654614 eV
  | Electrostatic energy          :           2.61444118 Ha          71.14256411 eV
  | Energy correction for multipole
  | error in Hartree potential    :           0.00247036 Ha           0.06722183 eV
  | Sum of eigenvalues per atom                           :         -31.31892414 eV
  | Total energy (T->0) per atom                          :         -34.87308359 eV  <-- do not rely on this value for anything but (periodic) metals
  | Electronic free energy per atom                       :         -34.87308359 eV

  Self-consistency convergence accuracy:
  | Change of charge/spin density : 0.1596E+01 0.5507E+00
  | Change of sum of eigenvalues  : 0.4518E+01 eV
  | Change of total energy        : 0.7195E+01 eV

  End self-consistency iteration #    10       :  max(cpu_time)    wall_clock(cpu1)
  | Time for this iteration                    :        0.028 s           0.028 s
  | Charge density update                      :        0.006 s           0.006 s
  | Density mixing                             :        0.002 s           0.002 s
  | Hartree multipole update                   :        0.002 s           0.001 s
  | Hartree multipole summation                :        0.005 s           0.005 s
  | Integration                                :        0.011 s           0.011 s
  | Solution of K.-S. eqns.                    :        0.001 s           0.002 s
  | Total energy evaluation                    :        0.000 s           0.001 s
------------------------------------------------------------

------------------------------------------------------------
          Begin self-consistency iteration #   11

  Date     :  20220120, Time     :  153443.452
------------------------------------------------------------
  Evaluating new KS density.
  Integration grid: deviation in total charge (<rho> - N_e) =   4.594751E-09
  | <rho_up-rho_dn> = N_up-N_dn =      0.0251; <|rho_up-rho_dn|> =      1.5140
  Pulay mixing of updated and previous charge densities.

  Evaluating partitioned Hartree potential by multipole expansion.
  | Analytical far-field extrapolation by fixed multipoles:
  | Hartree multipole sum: apparent total charge =  -0.799151E-05
  Summing up the Hartree potential.
  Time summed over all CPUs for potential: real work        0.033 s, elapsed        0.034 s
  | RMS charge density error from multipole expansion :   0.614067E-02

  Integrating Hamiltonian matrix: batch-based integration.
  Time summed over all CPUs for integration: real work        0.080 s, elapsed        0.096 s

  Updating Kohn-Sham eigenvalues, eigenvectors, occupation numbers, and Fermi level.
  Solving generalized eigenproblem
  Solving real symmetric generalised eigenvalue problem by standard ScaLAPACK.
  Using Cholesky factor for transformation
  Using 1-stage real ELPA solver
  Solving real symmetric generalised eigenvalue problem by standard ScaLAPACK.
  Using Cholesky factor for transformation
  Using 1-stage real ELPA solver
  Determining occupation numbers for Kohn-Sham eigenstates.
  | Chemical potential (Fermi level) in eV                 : -.17520490E+02
  | Error in electron count due to remaining E_F inaccuracy: 0.00000000E+00
  | Maximum occupation number of highest empty state:  0.00E+00

  Current spin moment of the entire structure :
  | N = N_up - N_down :    0.00
  | S                 :    0.00
  | J                 :    1.00

  Highest occupied state (VBM) at    -19.59450470 eV
  | Occupation number:      1.00000000
  | Spin channel:        2

  Lowest unoccupied state (CBM) at    -2.06477261 eV
  | Occupation number:      0.00000000
  | Spin channel:        1

  Overall HOMO-LUMO gap:     17.52973209 eV.

  Total energy components:
  | Sum of eigenvalues            :          -1.46489135 Ha         -39.86172180 eV
  | XC energy correction          :          -0.71832617 Ha         -19.54664971 eV
  | XC potential correction       :           0.92305727 Ha          25.11766626 eV
  | Free-atom electrostatic energy:          -0.27211178 Ha          -7.40453828 eV
  | Hartree energy correction     :           0.08908038 Ha           2.42400057 eV
  | van der Waals energy corr.    :           0.00000000 Ha           0.00000000 eV
  | Entropy correction            :           0.00000000 Ha           0.00000000 eV
  | ---------------------------
  | Total energy                  :          -1.44319165 Ha         -39.27124295 eV
  | Total energy, T -> 0          :          -1.44319165 Ha         -39.27124295 eV  <-- do not rely on this value for anything but (periodic) metals
  | Electronic free energy        :          -1.44319165 Ha         -39.27124295 eV

  Derived energy quantities:
  | Kinetic energy                :          -1.24093976 Ha         -33.76768893 eV
  | Electrostatic energy          :           0.51607428 Ha          14.04309569 eV
  | Energy correction for multipole
  | error in Hartree potential    :           0.00149711 Ha           0.04073856 eV
  | Sum of eigenvalues per atom                           :         -19.93086090 eV
  | Total energy (T->0) per atom                          :         -19.63562147 eV  <-- do not rely on this value for anything but (periodic) metals
  | Electronic free energy per atom                       :         -19.63562147 eV

[...]
  | Change of sum of eigenvalues  : -.3416E-04 eV
  | Change of total energy        : -.6624E-09 eV

  End self-consistency iteration #    26       :  max(cpu_time)    wall_clock(cpu1)
  | Time for this iteration                    :        0.027 s           0.026 s
  | Charge density update                      :        0.007 s           0.006 s
  | Density mixing                             :        0.002 s           0.002 s
  | Hartree multipole update                   :        0.001 s           0.001 s
  | Hartree multipole summation                :        0.004 s           0.005 s
  | Integration                                :        0.010 s           0.009 s
  | Solution of K.-S. eqns.                    :        0.001 s           0.002 s
  | Total energy evaluation                    :        0.000 s           0.001 s
------------------------------------------------------------

------------------------------------------------------------
          Begin self-consistency iteration #   27

  Date     :  20220120, Time     :  153443.960
------------------------------------------------------------
  Evaluating new KS density.
  Integration grid: deviation in total charge (<rho> - N_e) =   4.831691E-13
  | <rho_up-rho_dn> = N_up-N_dn =     -0.0000; <|rho_up-rho_dn|> =      0.0000
  Pulay mixing of updated and previous charge densities.

  Evaluating partitioned Hartree potential by multipole expansion.
  | Analytical far-field extrapolation by fixed multipoles:
  | Hartree multipole sum: apparent total charge =   0.863075E-06
  Summing up the Hartree potential.
  Time summed over all CPUs for potential: real work        0.033 s, elapsed        0.034 s
  | RMS charge density error from multipole expansion :   0.142208E-02

  Integrating Hamiltonian matrix: batch-based integration.
  Time summed over all CPUs for integration: real work        0.073 s, elapsed        0.076 s

  Updating Kohn-Sham eigenvalues, eigenvectors, occupation numbers, and Fermi level.
  Solving generalized eigenproblem
  Solving real symmetric generalised eigenvalue problem by standard ScaLAPACK.
  Using Cholesky factor for transformation
  Using 1-stage real ELPA solver
  Solving real symmetric generalised eigenvalue problem by standard ScaLAPACK.
  Using Cholesky factor for transformation
  Using 1-stage real ELPA solver
  Determining occupation numbers for Kohn-Sham eigenstates.
  | Chemical potential (Fermi level) in eV                 : -.91057183E+01
  | Error in electron count due to remaining E_F inaccuracy: 0.00000000E+00
  | Maximum occupation number of highest empty state:  0.00E+00

  Current spin moment of the entire structure :
  | N = N_up - N_down :    0.00
  | S                 :    0.00
  | J                 :    1.00

  Highest occupied state (VBM) at    -10.79791134 eV
  | Occupation number:      1.00000000
  | Spin channel:        1

  Lowest unoccupied state (CBM) at     0.82954795 eV
  | Occupation number:      0.00000000
  | Spin channel:        1

  Overall HOMO-LUMO gap:     11.62745929 eV.

  Total energy components:
  | Sum of eigenvalues            :          -0.79363190 Ha         -21.59582284 eV
  | XC energy correction          :          -0.71829180 Ha         -19.54571446 eV
  | XC potential correction       :           0.92204297 Ha          25.09006575 eV
  | Free-atom electrostatic energy:          -0.27211178 Ha          -7.40453828 eV
  | Hartree energy correction     :          -0.29846203 Ha          -8.12156498 eV
  | van der Waals energy corr.    :           0.00000000 Ha           0.00000000 eV
  | Entropy correction            :           0.00000000 Ha           0.00000000 eV
  | ---------------------------
  | Total energy                  :          -1.16045454 Ha         -31.57757480 eV
  | Total energy, T -> 0          :          -1.16045454 Ha         -31.57757480 eV  <-- do not rely on this value for anything but (periodic) metals
  | Electronic free energy        :          -1.16045454 Ha         -31.57757480 eV

  Derived energy quantities:
  | Kinetic energy                :           1.22650015 Ha          33.37476713 eV
  | Electrostatic energy          :          -1.66866289 Ha         -45.40662747 eV
  | Energy correction for multipole
  | error in Hartree potential    :          -0.00007591 Ha          -0.00206551 eV
  | Sum of eigenvalues per atom                           :         -10.79791142 eV
  | Total energy (T->0) per atom                          :         -15.78878740 eV  <-- do not rely on this value for anything but (periodic) metals
  | Electronic free energy per atom                       :         -15.78878740 eV

  Self-consistency convergence accuracy:
  | Change of charge/spin density : 0.1366E-05 0.1419E-05
  | Change of sum of eigenvalues  : -.1537E-04 eV
  | Change of total energy        : -.8035E-09 eV

  End self-consistency iteration #    27       :  max(cpu_time)    wall_clock(cpu1)
  | Time for this iteration                    :        0.027 s           0.025 s
  | Charge density update                      :        0.007 s           0.006 s
  | Density mixing                             :        0.002 s           0.001 s
  | Hartree multipole update                   :        0.001 s           0.002 s
  | Hartree multipole summation                :        0.004 s           0.004 s
  | Integration                                :        0.010 s           0.010 s
  | Solution of K.-S. eqns.                    :        0.001 s           0.001 s
  | Total energy evaluation                    :        0.000 s           0.000 s
------------------------------------------------------------

------------------------------------------------------------
          Begin self-consistency iteration #   28

  Date     :  20220120, Time     :  153443.989
------------------------------------------------------------
  Evaluating new KS density.
  Integration grid: deviation in total charge (<rho> - N_e) =   1.305622E-13
  | <rho_up-rho_dn> = N_up-N_dn =     -0.0000; <|rho_up-rho_dn|> =      0.0000
  Pulay mixing of updated and previous charge densities.

  Evaluating partitioned Hartree potential by multipole expansion.
  | Analytical far-field extrapolation by fixed multipoles:
  | Hartree multipole sum: apparent total charge =   0.863087E-06
  Summing up the Hartree potential.
  Time summed over all CPUs for potential: real work        0.033 s, elapsed        0.034 s
  | RMS charge density error from multipole expansion :   0.142208E-02

  Integrating Hamiltonian matrix: batch-based integration.
  Time summed over all CPUs for integration: real work        0.073 s, elapsed        0.076 s

  Updating Kohn-Sham eigenvalues, eigenvectors, occupation numbers, and Fermi level.
  Solving generalized eigenproblem
  Solving real symmetric generalised eigenvalue problem by standard ScaLAPACK.
  Using Cholesky factor for transformation
  Using 1-stage real ELPA solver
  Solving real symmetric generalised eigenvalue problem by standard ScaLAPACK.
  Using Cholesky factor for transformation
  Using 1-stage real ELPA solver
  Determining occupation numbers for Kohn-Sham eigenstates.
  | Chemical potential (Fermi level) in eV                 : -.91057472E+01
  | Error in electron count due to remaining E_F inaccuracy: 0.00000000E+00
  | Maximum occupation number of highest empty state:  0.00E+00

  Current spin moment of the entire structure :
  | N = N_up - N_down :    0.00
  | S                 :    0.00
  | J                 :    1.00

  Highest occupied state (VBM) at    -10.79791015 eV
  | Occupation number:      1.00000000
  | Spin channel:        2

  Lowest unoccupied state (CBM) at     0.82955504 eV
  | Occupation number:      0.00000000
  | Spin channel:        1

  Overall HOMO-LUMO gap:     11.62746519 eV.

  Total energy components:
  | Sum of eigenvalues            :          -0.79363181 Ha         -21.59582037 eV
  | XC energy correction          :          -0.71829183 Ha         -19.54571530 eV
  | XC potential correction       :           0.92204301 Ha          25.09006691 eV
  | Free-atom electrostatic energy:          -0.27211178 Ha          -7.40453828 eV
  | Hartree energy correction     :          -0.29846213 Ha          -8.12156776 eV
  | van der Waals energy corr.    :           0.00000000 Ha           0.00000000 eV
  | Entropy correction            :           0.00000000 Ha           0.00000000 eV
  | ---------------------------
  | Total energy                  :          -1.16045454 Ha         -31.57757480 eV
  | Total energy, T -> 0          :          -1.16045454 Ha         -31.57757480 eV  <-- do not rely on this value for anything but (periodic) metals
  | Electronic free energy        :          -1.16045454 Ha         -31.57757480 eV

  Derived energy quantities:
  | Kinetic energy                :           1.22650011 Ha          33.37476601 eV
  | Electrostatic energy          :          -1.66866282 Ha         -45.40662551 eV
  | Energy correction for multipole
  | error in Hartree potential    :          -0.00007591 Ha          -0.00206552 eV
  | Sum of eigenvalues per atom                           :         -10.79791019 eV
  | Total energy (T->0) per atom                          :         -15.78878740 eV  <-- do not rely on this value for anything but (periodic) metals
  | Electronic free energy per atom                       :         -15.78878740 eV

  Self-consistency convergence accuracy:
  | Change of charge/spin density : 0.1375E-06 0.1195E-06
  | Change of sum of eigenvalues  : 0.2472E-05 eV
  | Change of total energy        : -.1170E-10 eV

  Writing Kohn-Sham eigenvalues.

  Spin-up eigenvalues:

  State    Occupation    Eigenvalue [Ha]    Eigenvalue [eV]
      1       1.00000          -0.396816          -10.79791
      2       0.00000           0.030486            0.82956
      3       0.00000           0.045955            1.25049
      4       0.00000           0.180294            4.90606
      5       0.00000           0.324773            8.83751
      6       0.00000           0.324773            8.83751
      7       0.00000           0.361286            9.83108
      8       0.00000           0.597032           16.24607
      9       0.00000           0.783688           21.32525
     10       0.00000           0.784681           21.35225
     11       0.00000           0.784681           21.35225

  Spin-down eigenvalues:

  State    Occupation    Eigenvalue [Ha]    Eigenvalue [eV]
      1       1.00000          -0.396816          -10.79791
      2       0.00000           0.030486            0.82956
      3       0.00000           0.045955            1.25049
      4       0.00000           0.180295            4.90606
      5       0.00000           0.324773            8.83751
      6       0.00000           0.324773            8.83751
      7       0.00000           0.361286            9.83108
      8       0.00000           0.597032           16.24607
      9       0.00000           0.783688           21.32525
     10       0.00000           0.784681           21.35225
     11       0.00000           0.784681           21.35225

  Current spin moment of the entire structure :
  | N = N_up - N_down :    0.00
  | S                 :    0.00
  | J                 :    1.00

  Highest occupied state (VBM) at    -10.79791015 eV
  | Occupation number:      1.00000000
  | Spin channel:        2

  Lowest unoccupied state (CBM) at     0.82955504 eV
  | Occupation number:      0.00000000
  | Spin channel:        1

  Overall HOMO-LUMO gap:     11.62746519 eV.

  Self-consistency cycle converged.

  End self-consistency iteration #    28       :  max(cpu_time)    wall_clock(cpu1)
  | Time for this iteration                    :        0.027 s           0.027 s
  | Charge density update                      :        0.007 s           0.005 s
  | Density mixing                             :        0.002 s           0.002 s
  | Hartree multipole update                   :        0.001 s           0.001 s
  | Hartree multipole summation                :        0.004 s           0.005 s
  | Integration                                :        0.010 s           0.010 s
  | Solution of K.-S. eqns.                    :        0.001 s           0.001 s
  | Total energy evaluation                    :        0.000 s           0.001 s
------------------------------------------------------------
  Obtaining max. number of non-zero basis functions in each batch .
  Evaluating KS electron density on previously omitted grid points.
  Evaluating non-empirical van der Waals correction (Tkatchenko/Scheffler 2009).
  Performing Hirshfeld analysis of fragment charges and moments.
  ----------------------------------------------------------------------
  | Atom     1: H
  |   Hirshfeld charge        :     -0.00000050
  |   Free atom volume        :     10.31539447
  |   Hirshfeld volume        :      4.90474908
  |   Hirshfeld spin moment   :      0.00000002
  |   Hirshfeld dipole vector :      0.00000000       0.00000000      -0.07617045
  |   Hirshfeld dipole moment :      0.07617045
  |   Hirshfeld second moments:      0.13254139      -0.00000000       0.00000000
  |                                 -0.00000000       0.13254139      -0.00000000
  |                                  0.00000000      -0.00000000       0.13072090
  ----------------------------------------------------------------------
  | Atom     2: H
  |   Hirshfeld charge        :     -0.00000050
  |   Free atom volume        :     10.31539447
  |   Hirshfeld volume        :      4.90474908
  |   Hirshfeld spin moment   :      0.00000002
  |   Hirshfeld dipole vector :      0.00000000       0.00000000       0.07617045
  |   Hirshfeld dipole moment :      0.07617045
  |   Hirshfeld second moments:      0.13254139      -0.00000000      -0.00000000
  |                                 -0.00000000       0.13254139      -0.00000000
  |                                 -0.00000000      -0.00000000       0.13072090
  ----------------------------------------------------------------------


  Total energy components:
  | Sum of eigenvalues            :          -0.79363181 Ha         -21.59582037 eV
  | XC energy correction          :          -0.71829183 Ha         -19.54571530 eV
  | XC potential correction       :           0.92204301 Ha          25.09006691 eV
  | Free-atom electrostatic energy:          -0.27211178 Ha          -7.40453828 eV
  | Hartree energy correction     :          -0.29846213 Ha          -8.12156776 eV
  | van der Waals energy corr.    :          -0.00000019 Ha          -0.00000527 eV
  | Entropy correction            :           0.00000000 Ha           0.00000000 eV
  | ---------------------------
  | Total energy                  :          -1.16045474 Ha         -31.57758007 eV
  | Total energy, T -> 0          :          -1.16045474 Ha         -31.57758007 eV  <-- do not rely on this value for anything but (periodic) metals
  | Electronic free energy        :          -1.16045474 Ha         -31.57758007 eV

  Derived energy quantities:
  | Kinetic energy                :           1.22650011 Ha          33.37476601 eV
  | Electrostatic energy          :          -1.66866282 Ha         -45.40662551 eV
  | Energy correction for multipole
  | error in Hartree potential    :          -0.00007591 Ha          -0.00206552 eV
  | Sum of eigenvalues per atom                           :         -10.79791019 eV
  | Total energy (T->0) per atom                          :         -15.78879004 eV  <-- do not rely on this value for anything but (periodic) metals
  | Electronic free energy per atom                       :         -15.78879004 eV
  Timings for VdW correction (Tkatchenko-Scheffler 2009 or later):
  | CPU time:        0.003 s, Wall clock time:        0.003 s.

  Energy and forces in a compact form:
  | Total energy uncorrected      :         -0.315775800747791E+02 eV
  | Total energy corrected        :         -0.315775800747791E+02 eV  <-- do not rely on this value for anything but (periodic) metals
  | Electronic free energy        :         -0.315775800747791E+02 eV

  ------------------------------------ 
  Start decomposition of the XC Energy 
  ------------------------------------ 
  Hartree-Fock part   :          0.000000000 Ha              0.000000000 eV
  ------------------------------------ 
  X Energy            :         -0.675006713 Ha            -18.367867215 eV
  C Energy GGA        :         -0.043285122 Ha             -1.177848088 eV
  Total XC Energy     :         -0.718291835 Ha            -19.545715303 eV
  LDA X and C from self-consistent density 
  X Energy LDA        :         -0.590657765 Ha            -16.072615541 eV
  C Energy LDA        :         -0.096110869 Ha             -2.615309810 eV
  ------------------------------------ 
  End decomposition of the XC Energy 
  ------------------------------------ 

------------------------------------------------------------------------------
  Final output of selected total energy values:

  The following output summarizes some interesting total energy values
  at the end of a run (AFTER all relaxation, molecular dynamics, etc.).

  | Total energy of the DFT / Hartree-Fock s.c.f. calculation      :            -31.577580075 eV
  | Final zero-broadening corrected energy (caution - metals only) :            -31.577580075 eV
  | For reference only, the value of 1 Hartree used in FHI-aims is :             27.211384500 eV

  Before relying on these values, please be sure to understand exactly which
  total energy value is referred to by a given number. Different objects may
  all carry the same name 'total energy'. Definitions:

  Total energy of the DFT / Hartree-Fock s.c.f. calculation:
  | Note that this energy does not include ANY quantities calculated after the
  | s.c.f. cycle, in particular not ANY RPA, MP2, etc. many-body perturbation terms.

  Final zero-broadening corrected energy:
  | For metallic systems only, a broadening of the occupation numbers at the Fermi
  | level can be extrapolated back to zero broadening by an electron-gas inspired
  | formula. For all systems that are not real metals, this value can be
  | meaningless and should be avoided.

------------------------------------------------------------------------------

------------------------------------------------------------
          Leaving FHI-aims.
          Date     :  20220120, Time     :  153444.027

          Computational steps:
          | Number of self-consistency cycles          :           28

          Detailed time accounting                     :  max(cpu_time)    wall_clock(cpu1)
          | Total time                                 :        0.997 s           1.099 s
          | Preparation time                           :        0.077 s           0.079 s
          | Grid partitioning                          :        0.007 s           0.007 s
          | Preloading free-atom quantities on grid    :        0.004 s           0.003 s
          | Free-atom superposition energy             :        0.003 s           0.003 s
          | Total time for integrations                :        0.308 s           0.310 s
          | Total time for solution of K.-S. equations :        0.053 s           0.054 s
          | Total time for density update              :        0.209 s           0.184 s
          | Total time for mixing                      :        0.052 s           0.052 s
          | Total time for Hartree multipole update    :        0.039 s           0.041 s
          | Total time for Hartree multipole sum       :        0.145 s           0.147 s
          | Total time for total energy evaluation     :        0.005 s           0.015 s
          | Total time for scaled ZORA corrections     :        0.000 s           0.000 s
          | Total time for vdW correction              :        0.003 s           0.003 s

          Have a nice day.
------------------------------------------------------------
