  MPI-parallelism will be employed.
------------------------------------------------------------
          Invoking FHI-aims ...
          Version 052014
          Git rev. (modified): 096c982 Merge branch master of fhiaims:/pub/localo[...]
          Compiled on 2016/12/16 at 15:22:01 on host login02.hpc.iitd.ac.in.

          When using FHI-aims, please cite the following reference:

          Volker Blum, Ralf Gehrke, Felix Hanke, Paula Havu,
          Ville Havu, Xinguo Ren, Karsten Reuter, and Matthias Scheffler,
          'Ab Initio Molecular Simulations with Numeric Atom-Centered Orbitals: FHI-aims',
          Computer Physics Communications 180, 2175-2196 (2009)

          For any questions about FHI-aims, please visit the aimsclub website
          with its forums and wiki. Contributions to both the forums and the
          wiki are warmly encouraged - they are for you, and everyone is welcome there.

------------------------------------------------------------

  Date     :  20220221, Time     :  151608.204
  Time zero on CPU 1             :   0.153120000000000E-01  s.
  Internal wall clock time zero  :           414688568.204  s.

  Using        8 parallel tasks.
  Task        0 on host csky135 reporting.
  Task        1 on host csky135 reporting.
  Task        2 on host csky135 reporting.
  Task        3 on host csky135 reporting.
  Task        4 on host csky135 reporting.
  Task        5 on host csky135 reporting.
  Task        6 on host csky135 reporting.
  Task        7 on host csky135 reporting.

  Performing system and environment tests:
  | Environment variable OMP_NUM_THREADS correctly set to 1.
  | Stacksize not measured: no C compiler
  | Checking for scalapack...
  | Testing pdtran()...
  | All pdtran() tests passed.

  Obtaining array dimensions for all initial allocations:
  
  -----------------------------------------------------------------------
  Parsing control.in (first pass over file, find array dimensions only).
  The contents of control.in will be repeated verbatim below
  unless switched off by setting 'verbatim_writeout .false.' .
  in the first line of control.in .
  -----------------------------------------------------------------------
  
    xc               pbe
    spin             collinear
    default_initial_moment hund
    relativistic     atomic_zora scalar 1e-9
    occupation_type  gaussian 0.001
    charge	0
    vdw_correction_hirshfeld
    KS_method        scalapack_fast
    mixer            pulay
    charge_mix_param  0.4
    spin_mix_param    0.6
    sc_accuracy_rho  1E-4
    sc_accuracy_eev  1E-5
    sc_accuracy_etot 1E-5
    sc_iter_limit    100
    empty_states     5
    ####### keywords for DOS########
    k_grid  8 8 1
  ##########################
  #  relax_geometry trm 5E-5
  #  sc_accuracy_forces 1e-6
  ##########################
    output dos -20 20 10000 0.01
    dos_kgrid_factors 2 2 1
  
  ################################################################################
  #
  #  FHI-aims code project
  # Volker Blum, Fritz Haber Institute Berlin, 2009
  #
  #  Suggested "tight" defaults for C atom (to be pasted into control.in file)
  #
  ################################################################################
    species        C
  #     global species definitions
      nucleus             6
      mass                12.0107
  #
      l_hartree           6
  #
      cut_pot             4.0  2.0  1.0
      basis_dep_cutoff    1e-4
  #
      radial_base         34 7.0
      radial_multiplier   2
      angular_grids specified
        division   0.2187   50
        division   0.4416  110
        division   0.6335  194
        division   0.7727  302
        division   0.8772  434
  #      division   0.9334  590
  #      division   0.9924  770
  #      division   1.0230  974
  #      division   1.5020 1202
  #     outer_grid  974
        outer_grid  434
  ################################################################################
  #
  #  Definition of "minimal" basis
  #
  ################################################################################
  #     valence basis states
      valence      2  s   2.
      valence      2  p   2.
  #     ion occupancy
      ion_occ      2  s   1.
      ion_occ      2  p   1.
  ################################################################################
  #
  #  Suggested additional basis functions. For production calculations,
  #  uncomment them one after another (the most important basis functions are
  #  listed first).
  #
  #  Constructed for dimers: 1.0 A, 1.25 A, 1.5 A, 2.0 A, 3.0 A
  #
  ################################################################################
  #  "First tier" - improvements: -1214.57 meV to -155.61 meV
       hydro 2 p 1.7
       hydro 3 d 6
       hydro 2 s 4.9
  #  "Second tier" - improvements: -67.75 meV to -5.23 meV
       hydro 4 f 9.8
       hydro 3 p 5.2
       hydro 3 s 4.3
       hydro 5 g 14.4
       hydro 3 d 6.2
  #  "Third tier" - improvements: -2.43 meV to -0.60 meV
  #     hydro 2 p 5.6
  #     hydro 2 s 1.4
  #     hydro 3 d 4.9
  #     hydro 4 f 11.2
  #  "Fourth tier" - improvements: -0.39 meV to -0.18 meV
  #     hydro 2 p 2.1
  #     hydro 5 g 16.4
  #     hydro 4 d 13.2
  #     hydro 3 s 13.6
  #     hydro 4 f 17.6
  #  Further basis functions - improvements: -0.08 meV and below
  #     hydro 3 s 2
  #     hydro 3 p 6
  #     hydro 4 d 20
  ################################################################################
  #
  # For methods that use the localized form of the "resolution of identity" for
  # the two-electron Coulomb operator (RI_method LVL), particularly Hartree-Fock and
  # hybrid density functional calculations, the highest accuracy can be obtained by
  # uncommenting the line beginning with "for_aux"  below, thus adding an extra g radial
  # function to the construction of the product basis set for the expansion.
  # See Ref. New J. Phys. 17, 093020 (2015) for more information, particularly Figs. 1 and 6.
  #
  ################################################################################
  #
  # for_aux hydro 5 g 6.0
  
  -----------------------------------------------------------------------
  Completed first pass over input file control.in .
  -----------------------------------------------------------------------
  
  
  -----------------------------------------------------------------------
  Parsing geometry.in (first pass over file, find array dimensions only).
  The contents of geometry.in will be repeated verbatim below
  unless switched off by setting 'verbatim_writeout .false.' .
  in the first line of geometry.in .
  -----------------------------------------------------------------------
  
  lattice_vector   2.1304216  -1.2299995   0.0000000
  lattice_vector   0.0000000   2.4599989   0.0000000
  lattice_vector   0.0000000   0.0000000   6.8000000
  
  atom_frac                      -0.666667  -0.333333   0.500000  C
  atom_frac                       0.666667   0.333333   0.500000  C
  
  
  -----------------------------------------------------------------------
  Completed first pass over input file geometry.in .
  -----------------------------------------------------------------------
  

  Basic array size parameters:
  | Number of species                 :        1
  | Number of atoms                   :        2
  | Number of lattice vectors         :        3
  | Max. basis fn. angular momentum   :        4
  | Max. atomic/ionic basis occupied n:        2
  | Max. number of basis fn. types    :        2
  | Max. radial fns per species/type  :        8
  | Max. logarithmic grid size        :     1277
  | Max. radial integration grid size :       69
  | Max. angular integration grid size:      434
  | Max. angular grid division number :        8
  | Radial grid for Hartree potential :     1277
  | Number of spin channels           :        2

------------------------------------------------------------
          Reading file control.in.
------------------------------------------------------------
  XC: Using PBE gradient-corrected functionals.
  Spin treatment: Spin density functional theory - collinear spins.
  Initial spin moment per atom set according to Hund's rules.
  Scalar relativistic treatment of kinetic energy: on-site free-atom approximation to ZORA.
  Occupation type: Gaussian broadening, width =   0.100000E-02 eV.
  Charge =   0.000000E+00: Neutral system requested explicitly.
  Using non-empirical van der Waals correction (Hirshfeld partitioning):
  Kohn-Sham eigenvalues and eigenfunctions calculated by the ELPA eigensolver library.
  Using pulay charge density mixing.
  Charge density mixing - mixing parameter:     0.4000
  Spin density mixing - mixing parameter:     0.6000
  Convergence accuracy of self-consistent charge density: 0.1000E-03
  Convergence accuracy of sum of eigenvalues: 0.1000E-04
  Convergence accuracy of total energy: 0.1000E-04
  Maximum number of s.-c. iterations  :   100
  Number of empty states per atom:        5
  Found k-point grid:         8         8         1
  Calculating density of states with
  | energy interval :-20.000000 20.000000
  | points & broadening : 10000  0.010000
  Found k-point grid multipliers for perturbative DOS :         2         2         1
 
  Reading configuration options for species C                   .
  | Found nuclear charge :   6.0000
  | Found atomic mass :    12.0107000000000      amu
  | Found l_max for Hartree potential  :   6
  | Found cutoff potl. onset [A], width [A], scale factor :    4.00000    2.00000    1.00000
  | Threshold for basis-dependent cutoff potential is   0.100000E-03
  | Found data for basic radial integration grid :    34 points, outermost radius =    7.000 A
  | Found multiplier for basic radial grid :   2
  | Found angular grid specification: user-specified.
  | Specified grid contains     6 separate shells.
  | Check grid settings after all constraints further below.
  | Found free-atom valence shell :  2 s   2.000
  | Found free-atom valence shell :  2 p   2.000
  | No ionic wave fns used. Skipping ion_occ.
  | No ionic wave fns used. Skipping ion_occ.
  | Found hydrogenic basis function :  2 p   1.700
  | Found hydrogenic basis function :  3 d   6.000
  | Found hydrogenic basis function :  2 s   4.900
  | Found hydrogenic basis function :  4 f   9.800
  | Found hydrogenic basis function :  3 p   5.200
  | Found hydrogenic basis function :  3 s   4.300
  | Found hydrogenic basis function :  5 g  14.400
  | Found hydrogenic basis function :  3 d   6.200
  Species C                   : Missing cutoff potential type.
  Defaulting to exp(1/x)/(1-x)^2 type cutoff potential.
  Species C : No 'logarithmic' tag. Using default grid for free atom:
  | Default logarithmic grid data [bohr] : 0.1000E-03 0.1000E+03 0.1012E+01
  Species C : On-site basis accuracy parameter (for Gram-Schmidt orthonormalisation) not specified.
  Using default value basis_acc =  0.1000000E-03.
  Species C                   : Using default innermost maximum threshold i_radial=  2 for radial functions.
  Species C                   : Default cutoff onset for free atom density etc. : 0.40000000E+01 AA.
  Species C                   : Basic radial grid will be enhanced according to radial_multiplier =   2, to contain    69 grid points.
 
  Finished reading input file 'control.in'. Consistency checks are next.
 
  Target number of points in a grid batch is not set. Defaulting to  100
  Method for grid partitioning is not set. Defaulting to parallel hash+maxmin partitioning.
  Batch size limit is not set. Defaulting to    200
  By default, will store active basis functions for each batch.
  If in need of memory, prune_basis_once .false. can be used to disable this option.
  communication_type for Hartree potential was not specified.
  Defaulting to calc_hartree .
  Pulay mixer: Number of relevant iterations not set.
  Defaulting to    8 iterations.
  Pulay mixer: Number of initial linear mixing iterations not set.
  Defaulting to    0 iterations.
  Work space size for distributed Hartree potential not set.
  Defaulting to   0.200000E+03 MB.
  Algorithm-dependent basis array size parameters:
  | n_max_pulay                         :        8
  Calculation of forces was not defined in control.in. No forces will be calculated.
  Geometry relaxation not requested: no relaxation will be performed.
  No accuracy limit for integral partition fn. given. Defaulting to 0.1000E-14.
  No threshold value for u(r) in integrations given. Defaulting to 0.1000E-05.
  No accuracy for occupation numbers given. Defaulting to 0.1000E-07.
  No threshold value for occupation numbers given. Defaulting to 0.0000E+00.
  No accuracy for fermi level given. Defaulting to 0.1000E-19.
  Maximum # of iterations to find E_F not set. Defaulting to  200.
 * You have    64 k-points in your system, but only     8 MPI-tasks available.
 * In this case using ScaLAPACK is not necessary / supported.
 * Switching to default eigenvalue solver (lapack_fast) instead.
  Will not use alltoall communication since running on < 1024 CPUs.
  Threshold for basis singularities not set.
  Default threshold for basis singularities: 0.1000E-04
  partition_type (choice of integration weights) for integrals was not specified.
  | Using a version of the partition function of Stratmann and coworkers ('stratmann_smoother').
  | At each grid point, the set of atoms used to build the partition table is smoothly restricted to
  | only those atoms whose free-atom density would be non-zero at that grid point.
  Partitioning for Hartree potential was not defined. Using partition_type for integrals.
  | Adjusted default value of keyword multip_moments_threshold to:       0.10000000E-11
  | This value may affect high angular momentum components of the Hartree potential in periodic systems.
  Angular momentum expansion for Kerker preconditioner not set explicitly.
  | Using default value of   0
  No explicit requirement for turning off preconditioner.
  | By default, it will be turned off when the charge convergence reaches
  | sc_accuracy_rho  =   0.100000E-03
  | sc_accuracy_eev  =   0.100000E-04
  | sc_accuracy_etot =   0.100000E-04
  No special mixing parameter while Kerker preconditioner is on.
  Using default: charge_mix_param =     0.4000.
  No q(lm)/r^(l+1) cutoff set for long-range Hartree potential.
  | Using default value of  0.100000E-09 .
  | Verify using the multipole_threshold keyword.
  Defaulting to new monopole extrapolation.
  Density update method: automatic selection selected.
  Using density matrix based charge density update.
  Using density matrix based charge density update.
  Using packed matrix style: index .
  Defaulting to use time-reversal symmetry for k-point grid.
  Using the following vdw_convergence_threshold for supercell sums
  over the Tkatchenko-Scheffler correction: 0.100000E-04 eV.
------------------------------------------------------------


------------------------------------------------------------
          Reading geometry description geometry.in.
------------------------------------------------------------
  Input structure read successfully.
  The structure contains        2 atoms,  and a total of         12.000 electrons.

  Input geometry:
  | Unit cell:
  |         2.130422        -1.229999         0.000000
  |         0.000000         2.459999         0.000000
  |         0.000000         0.000000         6.800000
  | Atomic structure:
  |       Atom                x [A]            y [A]            z [A]
  |    1: Species C             -1.420282         0.000001         3.400000
  |    2: Species C              1.420282        -0.000001         3.400000
  |

  | The smallest distance between any two atoms is         1.42027960 AA.
  |
  | The first atom of this pair is atom number                      2 .
  | The second atom of this pair is atom number                     1 .
  | Wigner-Seitz cell of the first atom image           1     0     0 .
  | (The Wigner-Seitz cell of the second atom is 0 0 0  by definition.)

  Quantities derived from the lattice vectors:
  | Reciprocal lattice vector 1:  2.949268 -0.000000  0.000000
  | Reciprocal lattice vector 2:  1.474634  2.554142  0.000000
  | Reciprocal lattice vector 3:  0.000000  0.000000  0.923998
  | Unit cell volume                               :   0.356377E+02  A^3

  Initial moments and charges:
  |  Atom   Moment         Charge        Species
  |     1  (Hund's rule)   0.000000E+00   C
  |     2  (Hund's rule)   0.000000E+00   C

  Structure-dependent array size parameters: 
  | Number of distinct atom types in initial rho :        1
  | Maximum number of distinct radial functions  :       11
  | Maximum number of basis functions            :       78
  | Number of Kohn-Sham states (occupied + empty):       11
------------------------------------------------------------

------------------------------------------------------------
          Preparing all fixed parts of the calculation.
------------------------------------------------------------
  Determining machine precision:
    2.225073858507201E-308
  Setting up grids for atomic and cluster calculations.

  Creating wave function, potential, and density for free atoms.

  Species: C

  List of occupied orbitals and eigenvalues:
    n    l              occ      energy [Ha]    energy [eV]
    1    0           2.0000       -10.049212      -273.4530
    2    0           2.0000        -0.504761       -13.7352
    2    1           2.0000        -0.193631        -5.2690

  Spin-polarized or charged system:
  Charge density initialized according to selected moments and charges.

  Creating spin-polarized density from free atoms.

  Species: C
  Charge:   0.000000
  applying Hund's rules ...

  List of occupied orbitals and eigenvalues:
    n    l      energy [Ha]    energy [eV]    occupation
  Spin-up
    1    0       -10.040873      -273.2261     1.00000000
    2    0        -0.537730       -14.6324     1.00000000
    2    1        -0.223635        -6.0854     2.00000000
  Spin-down
    1    0       -10.011077      -272.4153     1.00000000
    2    0        -0.436278       -11.8717     1.00000000
    2    1        -0.132089        -3.5943     0.00000000

  Creating fixed part of basis set: Ionic, confined, hydrogenic.
 
  C                    hydrogenic:
 
  List of hydrogenic basis orbitals: 
    n    l      effective z      eigenvalue [eV]  inner max. [A]     outer max. [A]     outer radius [A]   
    2    1         1.700000        -9.8152           1.245706           1.245706           5.401630
    3    2         6.000000       -54.4226           0.792453           0.792453           4.178599
    2    0         4.900000       -81.6681           0.082559           0.562749           3.353238
    4    3         9.800000       -81.6681           0.863254           0.863254           4.028125
    3    1         5.200000       -40.8774           0.305389           1.215618           4.898362
    3    0         4.300000       -27.9508           0.091041           1.610311           5.401630
    5    4        14.400000      -112.8510           0.917666           0.917666           3.883070
    3    2         6.200000       -58.1113           0.763917           0.763917           4.077671
 

  Adding cutoff potential to free-atom effective potential.
  Creating atomic-like basis functions for current effective potential.

  Species C                   :

  List of atomic basis orbitals and eigenvalues:
    n    l      energy [Ha]    energy [eV]    outer radius [A]
    1    0       -10.049212      -273.4530       1.934409
    2    0        -0.504761       -13.7352       5.271162
    2    1        -0.193631        -5.2690       5.401630

  Assembling full basis from fixed parts.
  | Species C :   atomic orbital   1 s accepted.
  | Species C :    hydro orbital   2 s accepted.
  | Species C :   atomic orbital   2 s accepted.
  | Species C :    hydro orbital   3 s accepted.
  | Species C :    hydro orbital   3 p accepted.
  | Species C :   atomic orbital   2 p accepted.
  | Species C :    hydro orbital   2 p accepted.
  | Species C :    hydro orbital   3 d accepted.
  | Species C :    hydro orbital   3 d accepted.
  | Species C :    hydro orbital   4 f accepted.
  | Species C :    hydro orbital   5 g accepted.
 
  Basis size parameters after reduction:
  | Total number of radial functions:       11
  | Total number of basis functions :       78
 
  Testing on-site integration grid accuracy.
  |  Species  Function  <phi|h_atom|phi> (log., in eV)  <phi|h_atom|phi> (rad., in eV)
           1        1               -273.4529725981               -273.4529710451
           1        2                -10.7721037329                -10.7721022102
           1        3                 17.6044132585                 17.6044162052
           1        4                 53.7706460564                 53.7706913681
           1        5                 15.0973290351                 15.0973256011
           1        6                  3.8545134677                  3.8545724657
           1        7                 12.1156992586                 12.1182024423
           1        8                 29.4352039288                 29.4352041805
           1        9                 54.8741144697                 54.8740268719
           1       10                 59.3556032036                 59.3556031370
           1       11                 93.4551837140                 93.4551837996

  Preparing densities etc. for the partition functions (integrals / Hartree potential).

  Preparations completed.
  max(cpu_time)          :      0.160 s.
  Wall clock time (cpu1) :      0.163 s.
------------------------------------------------------------

------------------------------------------------------------
          Begin self-consistency loop: Initialization.

          Date     :  20220221, Time     :  151608.446
------------------------------------------------------------

  Initializing index lists of integration centers etc. from given atomic structure:
  Mapping all atomic coordinates to central unit cell.

  Initializing the k-points
          Using symmetry for reducing the k-points
  | k-points reduced from:       64 to       34
  | Number of k-points                             :        34
  The eigenvectors in the calculations are COMPLEX.
  | K-points in task   0:         4
  | K-points in task   1:         5
  | K-points in task   2:         5
  | K-points in task   3:         4
  | K-points in task   4:         4
  | K-points in task   5:         4
  | K-points in task   6:         4
  | K-points in task   7:         4
  | Number of basis functions in the Hamiltonian integrals :      3472
  | Number of basis functions in a single unit cell        :        78
  | Number of centers in hartree potential         :       646
  | Number of centers in hartree multipole         :       548
  | Number of centers in electron density summation:       428
  | Number of centers in basis integrals           :       456
  | Number of centers in integrals                 :       136
  | Consuming        124 KiB for k_phase.
  | Number of super-cells :                 234
  | Size of matrix packed + index :      284874
  Perform CPU consistency test for lattice for partition grid
  Perform CPU consistency test for map_to_center_cell_matrix for partition grid
  Partitioning the integration grid into batches with parallel hashing+maxmin method.
  | Number of batches:      496
  | Maximal batch size:     108
  | Minimal batch size:      50
  | Average batch size:      72.895
  | Standard deviation of batch sizes:      20.938

  Integration load balanced across     8 MPI tasks.
  Work distribution over tasks is as follows:
  Task     0 has       4522 integration points.
  Task     1 has       4521 integration points.
  Task     2 has       4485 integration points.
  Task     3 has       4502 integration points.
  Task     4 has       4502 integration points.
  Task     5 has       4538 integration points.
  Task     6 has       4549 integration points.
  Task     7 has       4537 integration points.
  Initializing partition tables, free-atom densities, potentials, etc. across the integration grid (initialize_grid_storage).
  | initialize_grid_storage: Actual outermost partition radius vs. multipole_radius_free
  | (-- VB: in principle, multipole_radius_free should be larger, hence this output)
  | Species        1: outer_partition_radius =              6.000000000000000 AA, multipole_radius_free =              6.029870734432609 AA.
  | Original list of interatomic distances with         456 x        456 entries is created.
  | Net number of integration points:    36156
  | of which are non-zero points    :    26826
  | Numerical average free-atom electrostatic potential    :     -6.92761138 eV
  Obtaining max. number of non-zero basis functions in each batch (get_n_compute_maxes).
  | Maximal number of non-zero basis functions:     1323 in task     0
  | Maximal number of non-zero basis functions:     1222 in task     1
  | Maximal number of non-zero basis functions:     1309 in task     2
  | Maximal number of non-zero basis functions:     1309 in task     3
  | Maximal number of non-zero basis functions:     1309 in task     4
  | Maximal number of non-zero basis functions:     1309 in task     5
  | Maximal number of non-zero basis functions:     1318 in task     6
  | Maximal number of non-zero basis functions:     1309 in task     7
  Integrating Hamiltonian matrix: batch-based integration.
  Time summed over all CPUs for integration: real work       14.198 s, elapsed       14.416 s
  Integrating overlap matrix.
  Time summed over all CPUs for integration: real work        5.749 s, elapsed        5.870 s
  Decreasing sparse matrix size:
   Tolerance:  9.999999824516700E-014
   Hamiltonian matrix
  | Array has   179225 nonzero elements out of   284874 elements
  | Sparsity factor is 0.371
   Overlap matrix
  | Array has   161147 nonzero elements out of   284874 elements
  | Sparsity factor is 0.434
  New size of hamiltonian matrix:      180040

  Updating Kohn-Sham eigenvalues, eigenvectors, occupation numbers, and Fermi level.
  Solving generalized eigenproblem
  Transforming overlap matrix and checking for singularities.
  Overlap matrix is nonsingular at first k-point:
  | Lowest eigenvalue:  0.153553E-03
  Determining occupation numbers for Kohn-Sham eigenstates.
  | Chemical potential (Fermi level) in eV                 : -.81196696E+01
  | Error in electron count due to remaining E_F inaccuracy: 0.00000000E+00
  | Maximum occupation number of highest empty state:  0.00E+00

  Writing Kohn-Sham eigenvalues.

  Spin-up eigenvalues:
  K-point:       1 at    0.000000    0.000000    0.000000 (in units of recip. lattice)

  State    Occupation    Eigenvalue [Ha]    Eigenvalue [eV]
      1       1.00000         -10.181848         -277.06218
      2       1.00000         -10.180882         -277.03589
      3       1.00000          -1.102207          -29.99257
      4       1.00000          -0.620114          -16.87417
      5       1.00000          -0.528020          -14.36816
      6       1.00000          -0.528017          -14.36806
      7       0.00000          -0.085400           -2.32384
      8       0.00000          -0.085394           -2.32369
      9       0.00000          -0.024009           -0.65332
     10       0.00000           0.040709            1.10776
     11       0.00000           0.048401            1.31707

  Spin-down eigenvalues:
  K-point:       1 at    0.000000    0.000000    0.000000 (in units of recip. lattice)

  State    Occupation    Eigenvalue [Ha]    Eigenvalue [eV]
      1       1.00000         -10.149912         -276.19315
      2       1.00000         -10.148980         -276.16780
      3       1.00000          -0.975509          -26.54495
      4       1.00000          -0.506695          -13.78788
      5       1.00000          -0.396552          -10.79073
      6       1.00000          -0.396548          -10.79063
      7       0.00000           0.040540            1.10314
      8       0.00000           0.040544            1.10325
      9       0.00000           0.041938            1.14118
     10       0.00000           0.094711            2.57721
     11       0.00000           0.163747            4.45578

  Current spin moment of the entire structure :
  | N = N_up - N_down (sum over all k points):         0.17647
  | S (sum over all k points)                :         0.08824

  What follows are estimated values for band gap, HOMO, LUMO, etc.
  | They are estimated on a discrete k-point grid and not necessarily exact.
  | For converged numbers, create a DOS and/or band structure plot on a denser k-grid.

  Highest occupied state (VBM) at     -8.66674779 eV (relative to internal zero)
  | Occupation number:      1.00000000
  | K-point:      30 at    0.625000    0.625000    0.000000 (in units of recip. lattice)
  | Spin channel:        1

  Lowest unoccupied state (CBM) at    -7.73766560 eV (relative to internal zero)
  | Occupation number:      0.00000000
  | K-point:       5 at    0.000000    0.500000    0.000000 (in units of recip. lattice)
  | Spin channel:        1

  ESTIMATED overall HOMO-LUMO gap:      0.92908219 eV between HOMO at k-point 30 and LUMO at k-point 5
  | This appears to be an indirect band gap.
  | Smallest direct gap :      0.99548065 eV for k_point 5 at    0.000000    0.500000    0.000000 (in units of recip. lattice)
  | Direct gap HOMO spin channel :     2
  | Direct gap LUMO spin channel :     1
  The gap value is above 0.2 eV. Unless you are using a very sparse k-point grid,
  this system is most likely an insulator or a semiconductor.
  Calculating total energy contributions from superposition of free atom densities.

  Total energy components:
  | Sum of eigenvalues            :         -45.93812202 Ha       -1250.03990155 eV
  | XC energy correction          :         -10.83312258 Ha        -294.78426400 eV
  | XC potential correction       :          13.93338521 Ha         379.14670243 eV
  | Free-atom electrostatic energy:         -33.32004492 Ha        -906.68455390 eV
  | Hartree energy correction     :           0.00000000 Ha           0.00000000 eV
  | van der Waals energy corr.    :           0.00000000 Ha           0.00000000 eV
  | Entropy correction            :           0.00000000 Ha           0.00000000 eV
  | ---------------------------
  | Total energy                  :         -76.15790431 Ha       -2072.36201701 eV
  | Total energy, T -> 0          :         -76.15790431 Ha       -2072.36201701 eV  <-- do not rely on this value for anything but (periodic) metals
  | Electronic free energy        :         -76.15790431 Ha       -2072.36201701 eV

  Derived energy quantities:
  | Kinetic energy                :          76.18358430 Ha        2073.06080507 eV
  | Electrostatic energy          :        -141.50836603 Ha       -3850.63855809 eV
  | Energy correction for multipole
  | error in Hartree potential    :           0.00000000 Ha           0.00000000 eV
  | Sum of eigenvalues per atom                           :        -625.01995077 eV
  | Total energy (T->0) per atom                          :       -1036.18100851 eV  <-- do not rely on this value for anything but (periodic) metals
  | Electronic free energy per atom                       :       -1036.18100851 eV
  Initialize hartree_potential_storage
  Max. number of atoms included in rho_multipole:            2

  End scf initialization - timings             :  max(cpu_time)    wall_clock(cpu1)
  | Time for scf. initialization               :        3.086 s           3.122 s
  | Boundary condition initialization          :        0.070 s           0.071 s
  | Integration                                :        2.554 s           2.560 s
  | Solution of K.-S. eqns.                    :        0.054 s           0.077 s
  | Grid partitioning                          :        0.057 s           0.061 s
  | Preloading free-atom quantities on grid    :        0.005 s           0.005 s
  | Free-atom superposition energy             :        0.032 s           0.032 s
  | Total energy evaluation                    :        0.000 s           0.001 s
------------------------------------------------------------

------------------------------------------------------------
          Begin self-consistency iteration #    1

  Date     :  20220221, Time     :  151611.568
------------------------------------------------------------
  Evaluating new KS density using the density matrix
  Evaluating density matrix
  Evaluating density matrix
  Time summed over all CPUs for getting density from density matrix: real work       25.598 s, elapsed       26.207 s
  Integration grid: deviation in total charge (<rho> - N_e) =  -2.405867E-06
  | <rho_up-rho_dn> = N_up-N_dn =     -3.6250; <|rho_up-rho_dn|> =      3.6250
  Pulay mixing of updated and previous charge densities.

  Evaluating partitioned Hartree potential by multipole expansion.
  | Analytical far-field extrapolation by fixed multipoles:
  | Hartree multipole sum: apparent total charge =   0.345700E-03
  Summing up the Hartree potential.
  | Estimated reciprocal-space cutoff momentum G_max:         3.32253784 bohr^-1 .
  | Reciprocal lattice points for long-range Hartree potential:     150
  Time summed over all CPUs for potential: real work        2.079 s, elapsed        2.151 s
  | RMS charge density error from multipole expansion :   0.333136E-02
  | Average real-space part of the electrostatic potential :      0.12575246 eV

  Integrating Hamiltonian matrix: batch-based integration.
  Time summed over all CPUs for integration: real work       13.092 s, elapsed       13.317 s

  Updating Kohn-Sham eigenvalues, eigenvectors, occupation numbers, and Fermi level.
  Solving generalized eigenproblem
  Determining occupation numbers for Kohn-Sham eigenstates.
  | Chemical potential (Fermi level) in eV                 : -.66060316E+01
  | Error in electron count due to remaining E_F inaccuracy: 0.00000000E+00
  | Maximum occupation number of highest empty state:  0.00E+00

  Writing Kohn-Sham eigenvalues.

  Spin-up eigenvalues:
  K-point:       1 at    0.000000    0.000000    0.000000 (in units of recip. lattice)

  State    Occupation    Eigenvalue [Ha]    Eigenvalue [eV]
      1       1.00000         -10.060081         -273.74872
      2       1.00000         -10.059109         -273.72227
      3       1.00000          -1.014557          -27.60751
      4       1.00000          -0.558198          -15.18934
      5       1.00000          -0.418806          -11.39628
      6       1.00000          -0.418802          -11.39619
      7       0.00000          -0.011103           -0.30212
      8       0.00000           0.009256            0.25187
      9       0.00000           0.009262            0.25202
     10       0.00000           0.054846            1.49243
     11       0.00000           0.127893            3.48015

  Spin-down eigenvalues:
  K-point:       1 at    0.000000    0.000000    0.000000 (in units of recip. lattice)

  State    Occupation    Eigenvalue [Ha]    Eigenvalue [eV]
      1       1.00000         -10.040054         -273.20378
      2       1.00000         -10.039103         -273.17789
      3       1.00000          -0.924522          -25.15753
      4       1.00000          -0.472668          -12.86196
      5       1.00000          -0.335107           -9.11871
      6       1.00000          -0.335103           -9.11863
      7       0.00000           0.025156            0.68452
      8       0.00000           0.071195            1.93731
      9       0.00000           0.098066            2.66852
     10       0.00000           0.098070            2.66863
     11       0.00000           0.219791            5.98081

  Current spin moment of the entire structure :
  | N = N_up - N_down (sum over all k points):         0.17647
  | S (sum over all k points)                :         0.08824

  What follows are estimated values for band gap, HOMO, LUMO, etc.
  | They are estimated on a discrete k-point grid and not necessarily exact.
  | For converged numbers, create a DOS and/or band structure plot on a denser k-grid.

  Highest occupied state (VBM) at     -6.74132429 eV (relative to internal zero)
  | Occupation number:      1.00000000
  | K-point:      30 at    0.625000    0.625000    0.000000 (in units of recip. lattice)
  | Spin channel:        1

  Lowest unoccupied state (CBM) at    -6.29953053 eV (relative to internal zero)
  | Occupation number:      0.00000000
  | K-point:      30 at    0.625000    0.625000    0.000000 (in units of recip. lattice)
  | Spin channel:        2

  ESTIMATED overall HOMO-LUMO gap:      0.44179376 eV between HOMO at k-point 30 and LUMO at k-point 30
  | This appears to be a direct band gap.
  The gap value is above 0.2 eV. Unless you are using a very sparse k-point grid,
  this system is most likely an insulator or a semiconductor.

  Total energy components:
  | Sum of eigenvalues            :         -44.90829335 Ha       -1222.01683766 eV
  | XC energy correction          :         -10.83358479 Ha        -294.79684123 eV
  | XC potential correction       :          13.92623987 Ha         378.95226766 eV
  | Free-atom electrostatic energy:         -33.32004492 Ha        -906.68455390 eV
  | Hartree energy correction     :          -1.03804277 Ha         -28.24658100 eV
  | van der Waals energy corr.    :           0.00000000 Ha           0.00000000 eV
  | Entropy correction            :           0.00000000 Ha           0.00000000 eV
  | ---------------------------
  | Total energy                  :         -76.17372597 Ha       -2072.79254613 eV
  | Total energy, T -> 0          :         -76.17372597 Ha       -2072.79254613 eV  <-- do not rely on this value for anything but (periodic) metals
  | Electronic free energy        :         -76.17372597 Ha       -2072.79254613 eV

  Derived energy quantities:
  | Kinetic energy                :          76.30795018 Ha        2076.44497278 eV
  | Electrostatic energy          :        -141.64809136 Ha       -3854.44067769 eV
  | Energy correction for multipole
  | error in Hartree potential    :          -0.00487112 Ha          -0.13254992 eV
  | Sum of eigenvalues per atom                           :        -611.00841883 eV
  | Total energy (T->0) per atom                          :       -1036.39627306 eV  <-- do not rely on this value for anything but (periodic) metals
  | Electronic free energy per atom                       :       -1036.39627306 eV

  Self-consistency convergence accuracy:
  | Change of charge/spin density : 0.2290E+00 0.4970E+00
  | Change of sum of eigenvalues  : 0.2802E+02 eV
  | Change of total energy        : -.4305E+00 eV

  End self-consistency iteration #     1       :  max(cpu_time)    wall_clock(cpu1)
  | Time for this iteration                    :        5.454 s           5.467 s
  | Charge density update                      :        3.282 s           3.290 s
  | Density mixing & preconditioning           :        0.201 s           0.202 s
  | Hartree multipole update                   :        0.002 s           0.001 s
  | Hartree multipole summation                :        0.273 s           0.274 s
  | Integration                                :        1.667 s           1.671 s
  | Solution of K.-S. eqns.                    :        0.026 s           0.027 s
  | Total energy evaluation                    :        0.000 s           0.001 s
------------------------------------------------------------

------------------------------------------------------------
          Begin self-consistency iteration #    2

  Date     :  20220221, Time     :  151617.039
------------------------------------------------------------
  Evaluating new KS density using the density matrix
  Evaluating density matrix
  Evaluating density matrix
  Time summed over all CPUs for getting density from density matrix: real work       25.531 s, elapsed       26.143 s
  Integration grid: deviation in total charge (<rho> - N_e) =   3.457596E-04
  | <rho_up-rho_dn> = N_up-N_dn =     -2.4809; <|rho_up-rho_dn|> =      2.4809
  Pulay mixing of updated and previous charge densities.

  Evaluating partitioned Hartree potential by multipole expansion.
  | Analytical far-field extrapolation by fixed multipoles:
  | Hartree multipole sum: apparent total charge =   0.494968E-03
  Summing up the Hartree potential.
  Time summed over all CPUs for potential: real work        2.149 s, elapsed        2.202 s
  | RMS charge density error from multipole expansion :   0.821847E-02
  | Average real-space part of the electrostatic potential :      0.26929377 eV

  Integrating Hamiltonian matrix: batch-based integration.
  Time summed over all CPUs for integration: real work       13.157 s, elapsed       13.434 s

  Updating Kohn-Sham eigenvalues, eigenvectors, occupation numbers, and Fermi level.
  Solving generalized eigenproblem
  Determining occupation numbers for Kohn-Sham eigenstates.
  | Chemical potential (Fermi level) in eV                 : -.54726494E+01
  | Error in electron count due to remaining E_F inaccuracy: 0.00000000E+00
  | Maximum occupation number of highest empty state:  0.00E+00

  Current spin moment of the entire structure :
  | N = N_up - N_down (sum over all k points):         0.00000
  | S (sum over all k points)                :         0.00000

  What follows are estimated values for band gap, HOMO, LUMO, etc.
  | They are estimated on a discrete k-point grid and not necessarily exact.
  | For converged numbers, create a DOS and/or band structure plot on a denser k-grid.

  Highest occupied state (VBM) at     -5.71754431 eV (relative to internal zero)
  | Occupation number:      1.00000000
  | K-point:      32 at    0.750000    0.625000    0.000000 (in units of recip. lattice)
  | Spin channel:        2

  Lowest unoccupied state (CBM) at    -4.51450218 eV (relative to internal zero)
  | Occupation number:      0.00000000
  | K-point:      20 at    0.375000    0.250000    0.000000 (in units of recip. lattice)
  | Spin channel:        1

  ESTIMATED overall HOMO-LUMO gap:      1.20304213 eV between HOMO at k-point 32 and LUMO at k-point 20
  | This appears to be an indirect band gap.
  | Smallest direct gap :      1.20304227 eV for k_point 20 at    0.375000    0.250000    0.000000 (in units of recip. lattice)
  | Direct gap HOMO spin channel :     2
  | Direct gap LUMO spin channel :     1
  The gap value is above 0.2 eV. Unless you are using a very sparse k-point grid,
  this system is most likely an insulator or a semiconductor.

  Total energy components:
  | Sum of eigenvalues            :         -43.92208847 Ha       -1195.18083739 eV
  | XC energy correction          :         -10.85350263 Ha        -295.33883336 eV
  | XC potential correction       :          13.94525951 Ha         379.46981857 eV
  | Free-atom electrostatic energy:         -33.32004492 Ha        -906.68455390 eV
  | Hartree energy correction     :          -2.07046999 Ha         -56.34035502 eV
  | van der Waals energy corr.    :           0.00000000 Ha           0.00000000 eV
  | Entropy correction            :           0.00000000 Ha           0.00000000 eV
  | ---------------------------
  | Total energy                  :         -76.22084650 Ha       -2074.07476111 eV
  | Total energy, T -> 0          :         -76.22084650 Ha       -2074.07476111 eV  <-- do not rely on this value for anything but (periodic) metals
  | Electronic free energy        :         -76.22084650 Ha       -2074.07476111 eV

  Derived energy quantities:
  | Kinetic energy                :          76.15177382 Ha        2072.19519770 eV
  | Electrostatic energy          :        -141.51911769 Ha       -3850.93112544 eV
  | Energy correction for multipole
  | error in Hartree potential    :          -0.01143068 Ha          -0.31104462 eV
  | Sum of eigenvalues per atom                           :        -597.59041869 eV
  | Total energy (T->0) per atom                          :       -1037.03738055 eV  <-- do not rely on this value for anything but (periodic) metals
  | Electronic free energy per atom                       :       -1037.03738055 eV

  Self-consistency convergence accuracy:
  | Change of charge/spin density : 0.1231E+00 0.3384E+00
  | Change of sum of eigenvalues  : 0.2684E+02 eV
  | Change of total energy        : -.1282E+01 eV

  End self-consistency iteration #     2       :  max(cpu_time)    wall_clock(cpu1)
  | Time for this iteration                    :        5.468 s           5.483 s
  | Charge density update                      :        3.272 s           3.280 s
  | Density mixing & preconditioning           :        0.205 s           0.207 s
  | Hartree multipole update                   :        0.002 s           0.001 s
  | Hartree multipole summation                :        0.279 s           0.280 s
  | Integration                                :        1.682 s           1.686 s
  | Solution of K.-S. eqns.                    :        0.026 s           0.026 s
  | Total energy evaluation                    :        0.000 s           0.001 s
------------------------------------------------------------

------------------------------------------------------------
          Begin self-consistency iteration #    3

  Date     :  20220221, Time     :  151622.523
------------------------------------------------------------
  Evaluating new KS density using the density matrix
  Evaluating density matrix
  Evaluating density matrix
  Time summed over all CPUs for getting density from density matrix: real work       25.500 s, elapsed       26.096 s
  Integration grid: deviation in total charge (<rho> - N_e) =   4.955572E-04
  | <rho_up-rho_dn> = N_up-N_dn =     -0.6401; <|rho_up-rho_dn|> =      0.6405
  Pulay mixing of updated and previous charge densities.

  Evaluating partitioned Hartree potential by multipole expansion.
  | Analytical far-field extrapolation by fixed multipoles:
  | Hartree multipole sum: apparent total charge =  -0.570825E-04
  Summing up the Hartree potential.
  Time summed over all CPUs for potential: real work        2.134 s, elapsed        2.186 s
  | RMS charge density error from multipole expansion :   0.857708E-02
  | Average real-space part of the electrostatic potential :      0.26275735 eV

  Integrating Hamiltonian matrix: batch-based integration.
  Time summed over all CPUs for integration: real work       13.169 s, elapsed       13.430 s

  Updating Kohn-Sham eigenvalues, eigenvectors, occupation numbers, and Fermi level.
  Solving generalized eigenproblem
  Determining occupation numbers for Kohn-Sham eigenstates.
  | Chemical potential (Fermi level) in eV                 : -.62708654E+01
  | Error in electron count due to remaining E_F inaccuracy: 0.00000000E+00
  | Maximum occupation number of highest empty state:  0.00E+00

  Current spin moment of the entire structure :
  | N = N_up - N_down (sum over all k points):         0.00000
  | S (sum over all k points)                :         0.00000

  What follows are estimated values for band gap, HOMO, LUMO, etc.
  | They are estimated on a discrete k-point grid and not necessarily exact.
  | For converged numbers, create a DOS and/or band structure plot on a denser k-grid.

  Highest occupied state (VBM) at     -6.29088825 eV (relative to internal zero)
  | Occupation number:      1.00000000
  | K-point:      20 at    0.375000    0.250000    0.000000 (in units of recip. lattice)
  | Spin channel:        2

  Lowest unoccupied state (CBM) at    -4.43625988 eV (relative to internal zero)
  | Occupation number:      0.00000000
  | K-point:      20 at    0.375000    0.250000    0.000000 (in units of recip. lattice)
  | Spin channel:        1

  ESTIMATED overall HOMO-LUMO gap:      1.85462837 eV between HOMO at k-point 20 and LUMO at k-point 20
  | This appears to be a direct band gap.
  The gap value is above 0.2 eV. Unless you are using a very sparse k-point grid,
  this system is most likely an insulator or a semiconductor.

  Total energy components:
  | Sum of eigenvalues            :         -44.11665694 Ha       -1200.47531481 eV
  | XC energy correction          :         -10.82790770 Ha        -294.64235987 eV
  | XC potential correction       :          13.91160006 Ha         378.55389814 eV
  | Free-atom electrostatic energy:         -33.32004492 Ha        -906.68455390 eV
  | Hartree energy correction     :          -1.87200773 Ha         -50.93992213 eV
  | van der Waals energy corr.    :           0.00000000 Ha           0.00000000 eV
  | Entropy correction            :          -0.00000000 Ha          -0.00000000 eV
  | ---------------------------
  | Total energy                  :         -76.22501724 Ha       -2074.18825256 eV
  | Total energy, T -> 0          :         -76.22501724 Ha       -2074.18825256 eV  <-- do not rely on this value for anything but (periodic) metals
  | Electronic free energy        :         -76.22501724 Ha       -2074.18825256 eV

  Derived energy quantities:
  | Kinetic energy                :          75.98659595 Ha        2067.70047931 eV
  | Electrostatic energy          :        -141.38370549 Ha       -3847.24637201 eV
  | Energy correction for multipole
  | error in Hartree potential    :          -0.01188524 Ha          -0.32341375 eV
  | Sum of eigenvalues per atom                           :        -600.23765740 eV
  | Total energy (T->0) per atom                          :       -1037.09412628 eV  <-- do not rely on this value for anything but (periodic) metals
  | Electronic free energy per atom                       :       -1037.09412628 eV

  Self-consistency convergence accuracy:
  | Change of charge/spin density : 0.3564E-01 0.7340E-01
  | Change of sum of eigenvalues  : -.5294E+01 eV
  | Change of total energy        : -.1135E+00 eV

  End self-consistency iteration #     3       :  max(cpu_time)    wall_clock(cpu1)
  | Time for this iteration                    :        5.453 s           5.465 s
  | Charge density update                      :        3.266 s           3.273 s
  | Density mixing & preconditioning           :        0.202 s           0.203 s
  | Hartree multipole update                   :        0.002 s           0.001 s
  | Hartree multipole summation                :        0.277 s           0.278 s
  | Integration                                :        1.679 s           1.682 s
  | Solution of K.-S. eqns.                    :        0.025 s           0.026 s
  | Total energy evaluation                    :        0.000 s           0.001 s
------------------------------------------------------------

------------------------------------------------------------
          Begin self-consistency iteration #    4

  Date     :  20220221, Time     :  151627.991
------------------------------------------------------------
  Evaluating new KS density using the density matrix
  Evaluating density matrix
  Evaluating density matrix
  Time summed over all CPUs for getting density from density matrix: real work       25.531 s, elapsed       26.120 s
  Integration grid: deviation in total charge (<rho> - N_e) =  -5.648474E-05
  | <rho_up-rho_dn> = N_up-N_dn =     -0.1111; <|rho_up-rho_dn|> =      0.1401
  Pulay mixing of updated and previous charge densities.

  Evaluating partitioned Hartree potential by multipole expansion.
  | Analytical far-field extrapolation by fixed multipoles:
  | Hartree multipole sum: apparent total charge =  -0.353312E-04
  Summing up the Hartree potential.
  Time summed over all CPUs for potential: real work        2.131 s, elapsed        2.182 s
  | RMS charge density error from multipole expansion :   0.826854E-02
  | Average real-space part of the electrostatic potential :      0.24787302 eV

  Integrating Hamiltonian matrix: batch-based integration.
  Time summed over all CPUs for integration: real work       13.096 s, elapsed       13.331 s

  Updating Kohn-Sham eigenvalues, eigenvectors, occupation numbers, and Fermi level.
  Solving generalized eigenproblem
  Determining occupation numbers for Kohn-Sham eigenstates.
  | Chemical potential (Fermi level) in eV                 : -.64481785E+01
  | Error in electron count due to remaining E_F inaccuracy: 0.00000000E+00
  | Maximum occupation number of highest empty state:  0.00E+00

  Current spin moment of the entire structure :
  | N = N_up - N_down (sum over all k points):         0.00000
  | S (sum over all k points)                :         0.00000

  What follows are estimated values for band gap, HOMO, LUMO, etc.
  | They are estimated on a discrete k-point grid and not necessarily exact.
  | For converged numbers, create a DOS and/or band structure plot on a denser k-grid.

  Highest occupied state (VBM) at     -6.52648641 eV (relative to internal zero)
  | Occupation number:      1.00000000
  | K-point:      20 at    0.375000    0.250000    0.000000 (in units of recip. lattice)
  | Spin channel:        2

  Lowest unoccupied state (CBM) at    -4.55093280 eV (relative to internal zero)
  | Occupation number:      0.00000000
  | K-point:      20 at    0.375000    0.250000    0.000000 (in units of recip. lattice)
  | Spin channel:        1

  ESTIMATED overall HOMO-LUMO gap:      1.97555361 eV between HOMO at k-point 20 and LUMO at k-point 20
  | This appears to be a direct band gap.
  The gap value is above 0.2 eV. Unless you are using a very sparse k-point grid,
  this system is most likely an insulator or a semiconductor.

  Total energy components:
  | Sum of eigenvalues            :         -44.24576472 Ha       -1203.98851637 eV
  | XC energy correction          :         -10.81595084 Ha        -294.31699709 eV
  | XC potential correction       :          13.89621877 Ha         378.13535213 eV
  | Free-atom electrostatic energy:         -33.32004492 Ha        -906.68455390 eV
  | Hartree energy correction     :          -1.73968216 Ha         -47.33916008 eV
  | van der Waals energy corr.    :           0.00000000 Ha           0.00000000 eV
  | Entropy correction            :           0.00000000 Ha           0.00000000 eV
  | ---------------------------
  | Total energy                  :         -76.22522387 Ha       -2074.19387531 eV
  | Total energy, T -> 0          :         -76.22522387 Ha       -2074.19387531 eV  <-- do not rely on this value for anything but (periodic) metals
  | Electronic free energy        :         -76.22522387 Ha       -2074.19387531 eV

  Derived energy quantities:
  | Kinetic energy                :          75.95585116 Ha        2066.86387101 eV
  | Electrostatic energy          :        -141.36512419 Ha       -3846.74074923 eV
  | Energy correction for multipole
  | error in Hartree potential    :          -0.01151436 Ha          -0.31332156 eV
  | Sum of eigenvalues per atom                           :        -601.99425818 eV
  | Total energy (T->0) per atom                          :       -1037.09693766 eV  <-- do not rely on this value for anything but (periodic) metals
  | Electronic free energy per atom                       :       -1037.09693766 eV

  Self-consistency convergence accuracy:
  | Change of charge/spin density : 0.1963E-01 0.1807E-01
  | Change of sum of eigenvalues  : -.3513E+01 eV
  | Change of total energy        : -.5623E-02 eV

  End self-consistency iteration #     4       :  max(cpu_time)    wall_clock(cpu1)
  | Time for this iteration                    :        5.444 s           5.456 s
  | Charge density update                      :        3.269 s           3.277 s
  | Density mixing & preconditioning           :        0.201 s           0.201 s
  | Hartree multipole update                   :        0.002 s           0.002 s
  | Hartree multipole summation                :        0.277 s           0.277 s
  | Integration                                :        1.667 s           1.672 s
  | Solution of K.-S. eqns.                    :        0.026 s           0.026 s
  | Total energy evaluation                    :        0.000 s           0.001 s
------------------------------------------------------------

------------------------------------------------------------
          Begin self-consistency iteration #    5

  Date     :  20220221, Time     :  151633.449
------------------------------------------------------------
  Evaluating new KS density using the density matrix
  Evaluating density matrix
  Evaluating density matrix
  Time summed over all CPUs for getting density from density matrix: real work       25.359 s, elapsed       25.944 s
  Integration grid: deviation in total charge (<rho> - N_e) =  -3.477626E-05
  | <rho_up-rho_dn> = N_up-N_dn =     -0.0434; <|rho_up-rho_dn|> =      0.0510
  Pulay mixing of updated and previous charge densities.

  Evaluating partitioned Hartree potential by multipole expansion.
  | Analytical far-field extrapolation by fixed multipoles:
  | Hartree multipole sum: apparent total charge =   0.567226E-04
  Summing up the Hartree potential.
  Time summed over all CPUs for potential: real work        2.133 s, elapsed        2.186 s
  | RMS charge density error from multipole expansion :   0.815045E-02
  | Average real-space part of the electrostatic potential :      0.24523025 eV

  Integrating Hamiltonian matrix: batch-based integration.
  Time summed over all CPUs for integration: real work       13.160 s, elapsed       13.388 s

  Updating Kohn-Sham eigenvalues, eigenvectors, occupation numbers, and Fermi level.
  Solving generalized eigenproblem
  Determining occupation numbers for Kohn-Sham eigenstates.
  | Chemical potential (Fermi level) in eV                 : -.64383700E+01
  | Error in electron count due to remaining E_F inaccuracy: 0.00000000E+00
  | Maximum occupation number of highest empty state:  0.00E+00

  Current spin moment of the entire structure :
  | N = N_up - N_down (sum over all k points):         0.00000
  | S (sum over all k points)                :         0.00000

  What follows are estimated values for band gap, HOMO, LUMO, etc.
  | They are estimated on a discrete k-point grid and not necessarily exact.
  | For converged numbers, create a DOS and/or band structure plot on a denser k-grid.

  Highest occupied state (VBM) at     -6.50110749 eV (relative to internal zero)
  | Occupation number:      1.00000000
  | K-point:      20 at    0.375000    0.250000    0.000000 (in units of recip. lattice)
  | Spin channel:        1

  Lowest unoccupied state (CBM) at    -4.52654130 eV (relative to internal zero)
  | Occupation number:      0.00000000
  | K-point:      20 at    0.375000    0.250000    0.000000 (in units of recip. lattice)
  | Spin channel:        2

  ESTIMATED overall HOMO-LUMO gap:      1.97456619 eV between HOMO at k-point 20 and LUMO at k-point 20
  | This appears to be a direct band gap.
  The gap value is above 0.2 eV. Unless you are using a very sparse k-point grid,
  this system is most likely an insulator or a semiconductor.

  Total energy components:
  | Sum of eigenvalues            :         -44.22971697 Ha       -1203.55183468 eV
  | XC energy correction          :         -10.81772192 Ha        -294.36519046 eV
  | XC potential correction       :          13.89841692 Ha         378.19516688 eV
  | Free-atom electrostatic energy:         -33.32004492 Ha        -906.68455390 eV
  | Hartree energy correction     :          -1.75619318 Ha         -47.78844783 eV
  | van der Waals energy corr.    :           0.00000000 Ha           0.00000000 eV
  | Entropy correction            :           0.00000000 Ha           0.00000000 eV
  | ---------------------------
  | Total energy                  :         -76.22526006 Ha       -2074.19485998 eV
  | Total energy, T -> 0          :         -76.22526006 Ha       -2074.19485998 eV  <-- do not rely on this value for anything but (periodic) metals
  | Electronic free energy        :         -76.22526006 Ha       -2074.19485998 eV

  Derived energy quantities:
  | Kinetic energy                :          75.98205415 Ha        2067.57689069 eV
  | Electrostatic energy          :        -141.38959229 Ha       -3847.40656021 eV
  | Energy correction for multipole
  | error in Hartree potential    :          -0.01141341 Ha          -0.31057461 eV
  | Sum of eigenvalues per atom                           :        -601.77591734 eV
  | Total energy (T->0) per atom                          :       -1037.09742999 eV  <-- do not rely on this value for anything but (periodic) metals
  | Electronic free energy per atom                       :       -1037.09742999 eV

  Self-consistency convergence accuracy:
  | Change of charge/spin density : 0.4025E-02 0.6420E-02
  | Change of sum of eigenvalues  : 0.4367E+00 eV
  | Change of total energy        : -.9847E-03 eV

  End self-consistency iteration #     5       :  max(cpu_time)    wall_clock(cpu1)
  | Time for this iteration                    :        5.425 s           5.438 s
  | Charge density update                      :        3.246 s           3.254 s
  | Density mixing & preconditioning           :        0.199 s           0.200 s
  | Hartree multipole update                   :        0.001 s           0.001 s
  | Hartree multipole summation                :        0.277 s           0.278 s
  | Integration                                :        1.673 s           1.678 s
  | Solution of K.-S. eqns.                    :        0.025 s           0.026 s
  | Total energy evaluation                    :        0.000 s           0.001 s
------------------------------------------------------------

------------------------------------------------------------
          Begin self-consistency iteration #    6

  Date     :  20220221, Time     :  151638.889
------------------------------------------------------------
  Evaluating new KS density using the density matrix
  Evaluating density matrix
  Evaluating density matrix
  Time summed over all CPUs for getting density from density matrix: real work       25.580 s, elapsed       26.196 s
  Integration grid: deviation in total charge (<rho> - N_e) =   5.726716E-05
  | <rho_up-rho_dn> = N_up-N_dn =      0.0035; <|rho_up-rho_dn|> =      0.0071
  Pulay mixing of updated and previous charge densities.

  Evaluating partitioned Hartree potential by multipole expansion.
  | Analytical far-field extrapolation by fixed multipoles:
  | Hartree multipole sum: apparent total charge =   0.612319E-04
  Summing up the Hartree potential.
  Time summed over all CPUs for potential: real work        2.137 s, elapsed        2.188 s
  | RMS charge density error from multipole expansion :   0.812468E-02
  | Average real-space part of the electrostatic potential :      0.24543778 eV

  Integrating Hamiltonian matrix: batch-based integration.
  Time summed over all CPUs for integration: real work       13.180 s, elapsed       13.407 s

  Updating Kohn-Sham eigenvalues, eigenvectors, occupation numbers, and Fermi level.
  Solving generalized eigenproblem
  Determining occupation numbers for Kohn-Sham eigenstates.
  | Chemical potential (Fermi level) in eV                 : -.64241535E+01
  | Error in electron count due to remaining E_F inaccuracy: 0.00000000E+00
  | Maximum occupation number of highest empty state:  0.00E+00

  Current spin moment of the entire structure :
  | N = N_up - N_down (sum over all k points):         0.00000
  | S (sum over all k points)                :         0.00000

  What follows are estimated values for band gap, HOMO, LUMO, etc.
  | They are estimated on a discrete k-point grid and not necessarily exact.
  | For converged numbers, create a DOS and/or band structure plot on a denser k-grid.

  Highest occupied state (VBM) at     -6.48909472 eV (relative to internal zero)
  | Occupation number:      1.00000000
  | K-point:      20 at    0.375000    0.250000    0.000000 (in units of recip. lattice)
  | Spin channel:        2

  Lowest unoccupied state (CBM) at    -4.50958000 eV (relative to internal zero)
  | Occupation number:      0.00000000
  | K-point:      20 at    0.375000    0.250000    0.000000 (in units of recip. lattice)
  | Spin channel:        1

  ESTIMATED overall HOMO-LUMO gap:      1.97951472 eV between HOMO at k-point 20 and LUMO at k-point 20
  | This appears to be a direct band gap.
  The gap value is above 0.2 eV. Unless you are using a very sparse k-point grid,
  this system is most likely an insulator or a semiconductor.

  Total energy components:
  | Sum of eigenvalues            :         -44.21898714 Ha       -1203.25986131 eV
  | XC energy correction          :         -10.81880398 Ha        -294.39463483 eV
  | XC potential correction       :          13.89978828 Ha         378.23248332 eV
  | Free-atom electrostatic energy:         -33.32004492 Ha        -906.68455390 eV
  | Hartree energy correction     :          -1.76721085 Ha         -48.08825401 eV
  | van der Waals energy corr.    :           0.00000000 Ha           0.00000000 eV
  | Entropy correction            :           0.00000000 Ha           0.00000000 eV
  | ---------------------------
  | Total energy                  :         -76.22525861 Ha       -2074.19482072 eV
  | Total energy, T -> 0          :         -76.22525861 Ha       -2074.19482072 eV  <-- do not rely on this value for anything but (periodic) metals
  | Electronic free energy        :         -76.22525861 Ha       -2074.19482072 eV

  Derived energy quantities:
  | Kinetic energy                :          75.99131647 Ha        2067.82893102 eV
  | Electrostatic energy          :        -141.39777110 Ha       -3847.62911692 eV
  | Energy correction for multipole
  | error in Hartree potential    :          -0.01138976 Ha          -0.30993123 eV
  | Sum of eigenvalues per atom                           :        -601.62993065 eV
  | Total energy (T->0) per atom                          :       -1037.09741036 eV  <-- do not rely on this value for anything but (periodic) metals
  | Electronic free energy per atom                       :       -1037.09741036 eV

  Self-consistency convergence accuracy:
  | Change of charge/spin density : 0.9440E-03 0.1093E-02
  | Change of sum of eigenvalues  : 0.2920E+00 eV
  | Change of total energy        : 0.3925E-04 eV

  End self-consistency iteration #     6       :  max(cpu_time)    wall_clock(cpu1)
  | Time for this iteration                    :        5.459 s           5.472 s
  | Charge density update                      :        3.278 s           3.285 s
  | Density mixing & preconditioning           :        0.195 s           0.196 s
  | Hartree multipole update                   :        0.002 s           0.002 s
  | Hartree multipole summation                :        0.278 s           0.279 s
  | Integration                                :        1.678 s           1.682 s
  | Solution of K.-S. eqns.                    :        0.026 s           0.026 s
  | Total energy evaluation                    :        0.000 s           0.000 s
------------------------------------------------------------

------------------------------------------------------------
          Begin self-consistency iteration #    7

  Date     :  20220221, Time     :  151644.362
------------------------------------------------------------
  Evaluating new KS density using the density matrix
  Evaluating density matrix
  Evaluating density matrix
  Time summed over all CPUs for getting density from density matrix: real work       25.454 s, elapsed       26.040 s
  Integration grid: deviation in total charge (<rho> - N_e) =   6.177548E-05
  | <rho_up-rho_dn> = N_up-N_dn =     -0.0032; <|rho_up-rho_dn|> =      0.0033
  Pulay mixing of updated and previous charge densities.

  Evaluating partitioned Hartree potential by multipole expansion.
  | Analytical far-field extrapolation by fixed multipoles:
  | Hartree multipole sum: apparent total charge =   0.594620E-04
  Summing up the Hartree potential.
  Time summed over all CPUs for potential: real work        2.133 s, elapsed        2.185 s
  | RMS charge density error from multipole expansion :   0.812447E-02
  | Average real-space part of the electrostatic potential :      0.24544342 eV

  Integrating Hamiltonian matrix: batch-based integration.
  Time summed over all CPUs for integration: real work       13.077 s, elapsed       13.306 s

  Updating Kohn-Sham eigenvalues, eigenvectors, occupation numbers, and Fermi level.
  Solving generalized eigenproblem
  Determining occupation numbers for Kohn-Sham eigenstates.
  | Chemical potential (Fermi level) in eV                 : -.64229551E+01
  | Error in electron count due to remaining E_F inaccuracy: 0.00000000E+00
  | Maximum occupation number of highest empty state:  0.00E+00

  Current spin moment of the entire structure :
  | N = N_up - N_down (sum over all k points):         0.00000
  | S (sum over all k points)                :         0.00000

  What follows are estimated values for band gap, HOMO, LUMO, etc.
  | They are estimated on a discrete k-point grid and not necessarily exact.
  | For converged numbers, create a DOS and/or band structure plot on a denser k-grid.

  Highest occupied state (VBM) at     -6.48924709 eV (relative to internal zero)
  | Occupation number:      1.00000000
  | K-point:      20 at    0.375000    0.250000    0.000000 (in units of recip. lattice)
  | Spin channel:        2

  Lowest unoccupied state (CBM) at    -4.50949022 eV (relative to internal zero)
  | Occupation number:      0.00000000
  | K-point:      20 at    0.375000    0.250000    0.000000 (in units of recip. lattice)
  | Spin channel:        1

  ESTIMATED overall HOMO-LUMO gap:      1.97975686 eV between HOMO at k-point 20 and LUMO at k-point 20
  | This appears to be a direct band gap.
  The gap value is above 0.2 eV. Unless you are using a very sparse k-point grid,
  this system is most likely an insulator or a semiconductor.

  Total energy components:
  | Sum of eigenvalues            :         -44.21900105 Ha       -1203.26023979 eV
  | XC energy correction          :         -10.81880252 Ha        -294.39459507 eV
  | XC potential correction       :          13.89978665 Ha         378.23243905 eV
  | Free-atom electrostatic energy:         -33.32004492 Ha        -906.68455390 eV
  | Hartree energy correction     :          -1.76719729 Ha         -48.08788485 eV
  | van der Waals energy corr.    :           0.00000000 Ha           0.00000000 eV
  | Entropy correction            :           0.00000000 Ha           0.00000000 eV
  | ---------------------------
  | Total energy                  :         -76.22525912 Ha       -2074.19483456 eV
  | Total energy, T -> 0          :         -76.22525912 Ha       -2074.19483456 eV  <-- do not rely on this value for anything but (periodic) metals
  | Electronic free energy        :         -76.22525912 Ha       -2074.19483456 eV

  Derived energy quantities:
  | Kinetic energy                :          75.99130956 Ha        2067.82874312 eV
  | Electrostatic energy          :        -141.39776617 Ha       -3847.62898261 eV
  | Energy correction for multipole
  | error in Hartree potential    :          -0.01138965 Ha          -0.30992818 eV
  | Sum of eigenvalues per atom                           :        -601.63011989 eV
  | Total energy (T->0) per atom                          :       -1037.09741728 eV  <-- do not rely on this value for anything but (periodic) metals
  | Electronic free energy per atom                       :       -1037.09741728 eV

  Self-consistency convergence accuracy:
  | Change of charge/spin density : 0.1213E-02 0.3700E-03
  | Change of sum of eigenvalues  : -.3785E-03 eV
  | Change of total energy        : -.1384E-04 eV

  End self-consistency iteration #     7       :  max(cpu_time)    wall_clock(cpu1)
  | Time for this iteration                    :        5.420 s           5.432 s
  | Charge density update                      :        3.259 s           3.267 s
  | Density mixing & preconditioning           :        0.191 s           0.191 s
  | Hartree multipole update                   :        0.002 s           0.002 s
  | Hartree multipole summation                :        0.277 s           0.278 s
  | Integration                                :        1.663 s           1.667 s
  | Solution of K.-S. eqns.                    :        0.026 s           0.026 s
  | Total energy evaluation                    :        0.000 s           0.001 s
------------------------------------------------------------

------------------------------------------------------------
          Begin self-consistency iteration #    8

  Date     :  20220221, Time     :  151649.799
------------------------------------------------------------
  Evaluating new KS density using the density matrix
  Evaluating density matrix
  Evaluating density matrix
  Time summed over all CPUs for getting density from density matrix: real work       25.420 s, elapsed       25.989 s
  Integration grid: deviation in total charge (<rho> - N_e) =   6.000555E-05
  | <rho_up-rho_dn> = N_up-N_dn =     -0.0030; <|rho_up-rho_dn|> =      0.0031
  Pulay mixing of updated and previous charge densities.

  Evaluating partitioned Hartree potential by multipole expansion.
  | Analytical far-field extrapolation by fixed multipoles:
  | Hartree multipole sum: apparent total charge =   0.304882E-04
  Summing up the Hartree potential.
  Time summed over all CPUs for potential: real work        2.134 s, elapsed        2.185 s
  | RMS charge density error from multipole expansion :   0.812214E-02
  | Average real-space part of the electrostatic potential :      0.24552624 eV

  Integrating Hamiltonian matrix: batch-based integration.
  Time summed over all CPUs for integration: real work       13.156 s, elapsed       13.384 s

  Updating Kohn-Sham eigenvalues, eigenvectors, occupation numbers, and Fermi level.
  Solving generalized eigenproblem
  Determining occupation numbers for Kohn-Sham eigenstates.
  | Chemical potential (Fermi level) in eV                 : -.63769916E+01
  | Error in electron count due to remaining E_F inaccuracy: 0.00000000E+00
  | Maximum occupation number of highest empty state:  0.00E+00

  Current spin moment of the entire structure :
  | N = N_up - N_down (sum over all k points):         0.00000
  | S (sum over all k points)                :         0.00000

  What follows are estimated values for band gap, HOMO, LUMO, etc.
  | They are estimated on a discrete k-point grid and not necessarily exact.
  | For converged numbers, create a DOS and/or band structure plot on a denser k-grid.

  Highest occupied state (VBM) at     -6.49233487 eV (relative to internal zero)
  | Occupation number:      1.00000000
  | K-point:      20 at    0.375000    0.250000    0.000000 (in units of recip. lattice)
  | Spin channel:        1

  Lowest unoccupied state (CBM) at    -4.50804164 eV (relative to internal zero)
  | Occupation number:      0.00000000
  | K-point:      20 at    0.375000    0.250000    0.000000 (in units of recip. lattice)
  | Spin channel:        2

  ESTIMATED overall HOMO-LUMO gap:      1.98429324 eV between HOMO at k-point 20 and LUMO at k-point 20
  | This appears to be a direct band gap.
  The gap value is above 0.2 eV. Unless you are using a very sparse k-point grid,
  this system is most likely an insulator or a semiconductor.

  Total energy components:
  | Sum of eigenvalues            :         -44.21967082 Ha       -1203.27846513 eV
  | XC energy correction          :         -10.81873329 Ha        -294.39271131 eV
  | XC potential correction       :          13.89970281 Ha         378.23015771 eV
  | Free-atom electrostatic energy:         -33.32004492 Ha        -906.68455390 eV
  | Hartree energy correction     :          -1.76651244 Ha         -48.06924922 eV
  | van der Waals energy corr.    :           0.00000000 Ha           0.00000000 eV
  | Entropy correction            :           0.00000000 Ha           0.00000000 eV
  | ---------------------------
  | Total energy                  :         -76.22525865 Ha       -2074.19482185 eV
  | Total energy, T -> 0          :         -76.22525865 Ha       -2074.19482185 eV  <-- do not rely on this value for anything but (periodic) metals
  | Electronic free energy        :         -76.22525865 Ha       -2074.19482185 eV

  Derived energy quantities:
  | Kinetic energy                :          75.99082231 Ha        2067.81548445 eV
  | Electrostatic energy          :        -141.39734768 Ha       -3847.61759499 eV
  | Energy correction for multipole
  | error in Hartree potential    :          -0.01138865 Ha          -0.30990101 eV
  | Sum of eigenvalues per atom                           :        -601.63923257 eV
  | Total energy (T->0) per atom                          :       -1037.09741093 eV  <-- do not rely on this value for anything but (periodic) metals
  | Electronic free energy per atom                       :       -1037.09741093 eV

  Self-consistency convergence accuracy:
  | Change of charge/spin density : 0.2876E-02 0.3504E-03
  | Change of sum of eigenvalues  : -.1823E-01 eV
  | Change of total energy        : 0.1271E-04 eV

  End self-consistency iteration #     8       :  max(cpu_time)    wall_clock(cpu1)
  | Time for this iteration                    :        5.421 s           5.433 s
  | Charge density update                      :        3.252 s           3.259 s
  | Density mixing & preconditioning           :        0.190 s           0.190 s
  | Hartree multipole update                   :        0.001 s           0.002 s
  | Hartree multipole summation                :        0.277 s           0.278 s
  | Integration                                :        1.673 s           1.677 s
  | Solution of K.-S. eqns.                    :        0.025 s           0.025 s
  | Total energy evaluation                    :        0.000 s           0.000 s
------------------------------------------------------------

------------------------------------------------------------
          Begin self-consistency iteration #    9

  Date     :  20220221, Time     :  151655.233
------------------------------------------------------------
  Evaluating new KS density using the density matrix
  Evaluating density matrix
  Evaluating density matrix
  Time summed over all CPUs for getting density from density matrix: real work       25.499 s, elapsed       26.063 s
  Integration grid: deviation in total charge (<rho> - N_e) =   3.103178E-05
  | <rho_up-rho_dn> = N_up-N_dn =     -0.0000; <|rho_up-rho_dn|> =      0.0003
  Pulay mixing of updated and previous charge densities.

  Evaluating partitioned Hartree potential by multipole expansion.
  | Analytical far-field extrapolation by fixed multipoles:
  | Hartree multipole sum: apparent total charge =   0.480063E-05
  Summing up the Hartree potential.
  Time summed over all CPUs for potential: real work        2.135 s, elapsed        2.186 s
  | RMS charge density error from multipole expansion :   0.812055E-02
  | Average real-space part of the electrostatic potential :      0.24560930 eV

  Integrating Hamiltonian matrix: batch-based integration.
  Time summed over all CPUs for integration: real work       13.140 s, elapsed       13.369 s

  Updating Kohn-Sham eigenvalues, eigenvectors, occupation numbers, and Fermi level.
  Solving generalized eigenproblem
  Determining occupation numbers for Kohn-Sham eigenstates.
  | Chemical potential (Fermi level) in eV                 : -.63704540E+01
  | Error in electron count due to remaining E_F inaccuracy: 0.00000000E+00
  | Maximum occupation number of highest empty state:  0.00E+00

  Current spin moment of the entire structure :
  | N = N_up - N_down (sum over all k points):         0.00000
  | S (sum over all k points)                :         0.00000

[...]
  | Occupation number:      0.00000000
  | K-point:      20 at    0.375000    0.250000    0.000000 (in units of recip. lattice)
  | Spin channel:        1

  ESTIMATED overall HOMO-LUMO gap:      1.98432633 eV between HOMO at k-point 20 and LUMO at k-point 20
  | This appears to be a direct band gap.
  The gap value is above 0.2 eV. Unless you are using a very sparse k-point grid,
  this system is most likely an insulator or a semiconductor.

  Total energy components:
  | Sum of eigenvalues            :         -44.21945813 Ha       -1203.27267757 eV
  | XC energy correction          :         -10.81875106 Ha        -294.39319492 eV
  | XC potential correction       :          13.89972825 Ha         378.23084983 eV
  | Free-atom electrostatic energy:         -33.32004492 Ha        -906.68455390 eV
  | Hartree energy correction     :          -1.76673266 Ha         -48.07524165 eV
  | van der Waals energy corr.    :           0.00000000 Ha           0.00000000 eV
  | Entropy correction            :           0.00000000 Ha           0.00000000 eV
  | ---------------------------
  | Total energy                  :         -76.22525852 Ha       -2074.19481821 eV
  | Total energy, T -> 0          :         -76.22525852 Ha       -2074.19481821 eV  <-- do not rely on this value for anything but (periodic) metals
  | Electronic free energy        :         -76.22525852 Ha       -2074.19481821 eV

  Derived energy quantities:
  | Kinetic energy                :          75.99088978 Ha        2067.81732022 eV
  | Electrostatic energy          :        -141.39739724 Ha       -3847.61894351 eV
  | Energy correction for multipole
  | error in Hartree potential    :          -0.01138630 Ha          -0.30983712 eV
  | Sum of eigenvalues per atom                           :        -601.63633878 eV
  | Total energy (T->0) per atom                          :       -1037.09740910 eV  <-- do not rely on this value for anything but (periodic) metals
  | Electronic free energy per atom                       :       -1037.09740910 eV

  Self-consistency convergence accuracy:
  | Change of charge/spin density : 0.2602E-06 0.1211E-06
  | Change of sum of eigenvalues  : -.4306E-04 eV
  | Change of total energy        : 0.7587E-08 eV

  End self-consistency iteration #    14       :  max(cpu_time)    wall_clock(cpu1)
  | Time for this iteration                    :        5.426 s           5.438 s
  | Charge density update                      :        3.252 s           3.259 s
  | Density mixing & preconditioning           :        0.189 s           0.190 s
  | Hartree multipole update                   :        0.001 s           0.002 s
  | Hartree multipole summation                :        0.277 s           0.278 s
  | Integration                                :        1.679 s           1.682 s
  | Solution of K.-S. eqns.                    :        0.025 s           0.026 s
  | Total energy evaluation                    :        0.000 s           0.001 s
------------------------------------------------------------

------------------------------------------------------------
          Begin self-consistency iteration #   15

  Date     :  20220221, Time     :  151727.874
------------------------------------------------------------
  Evaluating new KS density using the density matrix
  Evaluating density matrix
  Evaluating density matrix
  Time summed over all CPUs for getting density from density matrix: real work       25.464 s, elapsed       26.071 s
  Integration grid: deviation in total charge (<rho> - N_e) =  -1.576829E-07
  | <rho_up-rho_dn> = N_up-N_dn =      0.0000; <|rho_up-rho_dn|> =      0.0000
  Pulay mixing of updated and previous charge densities.

  Evaluating partitioned Hartree potential by multipole expansion.
  | Analytical far-field extrapolation by fixed multipoles:
  | Hartree multipole sum: apparent total charge =  -0.638602E-06
  Summing up the Hartree potential.
  Time summed over all CPUs for potential: real work        2.133 s, elapsed        2.185 s
  | RMS charge density error from multipole expansion :   0.812019E-02
  | Average real-space part of the electrostatic potential :      0.24562755 eV

  Integrating Hamiltonian matrix: batch-based integration.
  Time summed over all CPUs for integration: real work       13.067 s, elapsed       13.295 s

  Updating Kohn-Sham eigenvalues, eigenvectors, occupation numbers, and Fermi level.
  Solving generalized eigenproblem
  Determining occupation numbers for Kohn-Sham eigenstates.
  | Chemical potential (Fermi level) in eV                 : -.63677083E+01
  | Error in electron count due to remaining E_F inaccuracy: 0.00000000E+00
  | Maximum occupation number of highest empty state:  0.00E+00

  Current spin moment of the entire structure :
  | N = N_up - N_down (sum over all k points):         0.00000
  | S (sum over all k points)                :         0.00000

  What follows are estimated values for band gap, HOMO, LUMO, etc.
  | They are estimated on a discrete k-point grid and not necessarily exact.
  | For converged numbers, create a DOS and/or band structure plot on a denser k-grid.

  Highest occupied state (VBM) at     -6.49211782 eV (relative to internal zero)
  | Occupation number:      1.00000000
  | K-point:      20 at    0.375000    0.250000    0.000000 (in units of recip. lattice)
  | Spin channel:        2

  Lowest unoccupied state (CBM) at    -4.50779141 eV (relative to internal zero)
  | Occupation number:      0.00000000
  | K-point:      20 at    0.375000    0.250000    0.000000 (in units of recip. lattice)
  | Spin channel:        1

  ESTIMATED overall HOMO-LUMO gap:      1.98432642 eV between HOMO at k-point 20 and LUMO at k-point 20
  | This appears to be a direct band gap.
  The gap value is above 0.2 eV. Unless you are using a very sparse k-point grid,
  this system is most likely an insulator or a semiconductor.

  Total energy components:
  | Sum of eigenvalues            :         -44.21945808 Ha       -1203.27267626 eV
  | XC energy correction          :         -10.81875105 Ha        -294.39319468 eV
  | XC potential correction       :          13.89972824 Ha         378.23084952 eV
  | Free-atom electrostatic energy:         -33.32004492 Ha        -906.68455390 eV
  | Hartree energy correction     :          -1.76673270 Ha         -48.07524289 eV
  | van der Waals energy corr.    :           0.00000000 Ha           0.00000000 eV
  | Entropy correction            :           0.00000000 Ha           0.00000000 eV
  | ---------------------------
  | Total energy                  :         -76.22525852 Ha       -2074.19481821 eV
  | Total energy, T -> 0          :         -76.22525852 Ha       -2074.19481821 eV  <-- do not rely on this value for anything but (periodic) metals
  | Electronic free energy        :         -76.22525852 Ha       -2074.19481821 eV

  Derived energy quantities:
  | Kinetic energy                :          75.99088984 Ha        2067.81732193 eV
  | Electrostatic energy          :        -141.39739731 Ha       -3847.61894546 eV
  | Energy correction for multipole
  | error in Hartree potential    :          -0.01138631 Ha          -0.30983716 eV
  | Sum of eigenvalues per atom                           :        -601.63633813 eV
  | Total energy (T->0) per atom                          :       -1037.09740910 eV  <-- do not rely on this value for anything but (periodic) metals
  | Electronic free energy per atom                       :       -1037.09740910 eV

  Self-consistency convergence accuracy:
  | Change of charge/spin density : 0.5461E-07 0.4454E-07
  | Change of sum of eigenvalues  : 0.1305E-05 eV
  | Change of total energy        : -.4002E-09 eV

  Preliminary charge convergence reached. Turning off preconditioner.

  Writing Kohn-Sham eigenvalues.

  Spin-up eigenvalues:
  K-point:       1 at    0.000000    0.000000    0.000000 (in units of recip. lattice)

  State    Occupation    Eigenvalue [Ha]    Eigenvalue [eV]
      1       1.00000          -9.979045         -271.54362
      2       1.00000          -9.978082         -271.51743
      3       1.00000          -0.920447          -25.04663
      4       1.00000          -0.482513          -13.12983
      5       1.00000          -0.313187           -8.52225
      6       1.00000          -0.313184           -8.52217
      7       0.00000           0.020124            0.54760
      8       0.00000           0.068116            1.85353
      9       0.00000           0.106462            2.89698
     10       0.00000           0.106468            2.89715
     11       0.00000           0.222763            6.06169

  Spin-down eigenvalues:
  K-point:       1 at    0.000000    0.000000    0.000000 (in units of recip. lattice)

  State    Occupation    Eigenvalue [Ha]    Eigenvalue [eV]
      1       1.00000          -9.979045         -271.54362
      2       1.00000          -9.978082         -271.51743
      3       1.00000          -0.920447          -25.04663
      4       1.00000          -0.482512          -13.12983
      5       1.00000          -0.313187           -8.52225
      6       1.00000          -0.313184           -8.52217
      7       0.00000           0.020124            0.54760
      8       0.00000           0.068116            1.85353
      9       0.00000           0.106462            2.89698
     10       0.00000           0.106468            2.89715
     11       0.00000           0.222763            6.06169

  Current spin moment of the entire structure :
  | N = N_up - N_down (sum over all k points):         0.00000
  | S (sum over all k points)                :         0.00000

  What follows are estimated values for band gap, HOMO, LUMO, etc.
  | They are estimated on a discrete k-point grid and not necessarily exact.
  | For converged numbers, create a DOS and/or band structure plot on a denser k-grid.

  Highest occupied state (VBM) at     -6.49211782 eV (relative to internal zero)
  | Occupation number:      1.00000000
  | K-point:      20 at    0.375000    0.250000    0.000000 (in units of recip. lattice)
  | Spin channel:        2

  Lowest unoccupied state (CBM) at    -4.50779141 eV (relative to internal zero)
  | Occupation number:      0.00000000
  | K-point:      20 at    0.375000    0.250000    0.000000 (in units of recip. lattice)
  | Spin channel:        1

  ESTIMATED overall HOMO-LUMO gap:      1.98432642 eV between HOMO at k-point 20 and LUMO at k-point 20
  | This appears to be a direct band gap.
  The gap value is above 0.2 eV. Unless you are using a very sparse k-point grid,
  this system is most likely an insulator or a semiconductor.

  Self-consistency cycle converged.

  End self-consistency iteration #    15       :  max(cpu_time)    wall_clock(cpu1)
  | Time for this iteration                    :        5.419 s           5.432 s
  | Charge density update                      :        3.262 s           3.269 s
  | Density mixing                             :        0.189 s           0.190 s
  | Hartree multipole update                   :        0.001 s           0.001 s
  | Hartree multipole summation                :        0.277 s           0.278 s
  | Integration                                :        1.662 s           1.666 s
  | Solution of K.-S. eqns.                    :        0.025 s           0.026 s
  | Total energy evaluation                    :        0.000 s           0.001 s
------------------------------------------------------------
  Obtaining max. number of non-zero basis functions in each batch .
  Evaluating KS electron density on previously omitted grid points, using the density matrix.
  Evaluating density matrix
  Evaluating density matrix
  Evaluating non-empirical van der Waals correction (Tkatchenko/Scheffler 2009).
  Performing Hirshfeld analysis of fragment charges and moments.
  ----------------------------------------------------------------------
  | Atom     1: C
  |   Hirshfeld charge        :     -0.00003343
  |   Free atom volume        :     38.37861207
  |   Hirshfeld volume        :     32.34126511
  |   Hirshfeld spin moment   :     -0.00000002
  |   Hirshfeld dipole vector :     -0.00004854      -0.00000015      -0.00000001
  |   Hirshfeld dipole moment :      0.00004854
  |   Hirshfeld second moments:      0.08562041      -0.00000029      -0.00000000
  |                                 -0.00000029       0.08544100       0.00000000
  |                                 -0.00000000       0.00000000       0.25119374
  ----------------------------------------------------------------------
  | Atom     2: C
  |   Hirshfeld charge        :     -0.00003343
  |   Free atom volume        :     38.37861207
  |   Hirshfeld volume        :     32.34126511
  |   Hirshfeld spin moment   :     -0.00000002
  |   Hirshfeld dipole vector :      0.00004854       0.00000015       0.00000001
  |   Hirshfeld dipole moment :      0.00004854
  |   Hirshfeld second moments:      0.08562041      -0.00000029      -0.00000000
  |                                 -0.00000029       0.08544100       0.00000000
  |                                 -0.00000000       0.00000000       0.25119374
  ----------------------------------------------------------------------

  Converging periodic supercell size for vdw calculation.

  Total energy components:
  | Sum of eigenvalues            :         -44.21945808 Ha       -1203.27267626 eV
  | XC energy correction          :         -10.81875105 Ha        -294.39319468 eV
  | XC potential correction       :          13.89972824 Ha         378.23084952 eV
  | Free-atom electrostatic energy:         -33.32004492 Ha        -906.68455390 eV
  | Hartree energy correction     :          -1.76673270 Ha         -48.07524289 eV
  | van der Waals energy corr.    :          -0.00381822 Ha          -0.10389916 eV
  | Entropy correction            :           0.00000000 Ha           0.00000000 eV
  | ---------------------------
  | Total energy                  :         -76.22907674 Ha       -2074.29871737 eV
  | Total energy, T -> 0          :         -76.22907674 Ha       -2074.29871737 eV  <-- do not rely on this value for anything but (periodic) metals
  | Electronic free energy        :         -76.22907674 Ha       -2074.29871737 eV

  Derived energy quantities:
  | Kinetic energy                :          75.99088984 Ha        2067.81732193 eV
  | Electrostatic energy          :        -141.39739731 Ha       -3847.61894546 eV
  | Energy correction for multipole
  | error in Hartree potential    :          -0.01138631 Ha          -0.30983716 eV
  | Sum of eigenvalues per atom                           :        -601.63633813 eV
  | Total energy (T->0) per atom                          :       -1037.14935869 eV  <-- do not rely on this value for anything but (periodic) metals
  | Electronic free energy per atom                       :       -1037.14935869 eV
  Timings for VdW correction (Tkatchenko-Scheffler 2009 or later):
  | CPU time:        1.270 s, Wall clock time:        1.273 s.

  Energy and forces in a compact form:
  | Total energy uncorrected      :         -0.207429871737224E+04 eV
  | Total energy corrected        :         -0.207429871737224E+04 eV  <-- do not rely on this value for anything but (periodic) metals
  | Electronic free energy        :         -0.207429871737224E+04 eV

  ------------------------------------ 
  Start decomposition of the XC Energy 
  ------------------------------------ 
  Hartree-Fock part   :          0.000000000 Ha              0.000000000 eV
  ------------------------------------ 
  X Energy            :        -10.398878883 Ha           -282.967891651 eV
  C Energy GGA        :         -0.419872169 Ha            -11.425303025 eV
  Total XC Energy     :        -10.818751052 Ha           -294.393194676 eV
  LDA X and C from self-consistent density 
  X Energy LDA        :         -9.434426648 Ha           -256.723811054 eV
  C Energy LDA        :         -0.796148162 Ha            -21.664293765 eV
  ------------------------------------ 
  End decomposition of the XC Energy 
  ------------------------------------ 
  Post-scf processing of Kohn-Sham eigenvalues on a denser k-point grid.
  | Using dos_kgrid_factors to calculate post-scf total density of states.
  | Electron chemical potential:    -6.367708269594 eV.
  Integrating Hamiltonian matrix: batch-based integration.
  Time summed over all CPUs for integration: real work       13.140 s, elapsed       13.383 s
  Processing batch of k-points:     1     1     1
  Processing batch of k-points:     1     2     1
  Processing batch of k-points:     2     1     1
  Processing batch of k-points:     2     2     1
  | writing perturbative DOS (shifted by electron chemical potential) to file KS_dos_total.dat
  | writing perturbative DOS (raw data) to file KS_dos_total_raw.dat

------------------------------------------------------------------------------
  Final output of selected total energy values:

  The following output summarizes some interesting total energy values
  at the end of a run (AFTER all relaxation, molecular dynamics, etc.).

  | Total energy of the DFT / Hartree-Fock s.c.f. calculation      :          -2074.298717372 eV
  | Final zero-broadening corrected energy (caution - metals only) :          -2074.298717372 eV
  | For reference only, the value of 1 Hartree used in FHI-aims is :             27.211384500 eV

  Before relying on these values, please be sure to understand exactly which
  total energy value is referred to by a given number. Different objects may
  all carry the same name 'total energy'. Definitions:

  Total energy of the DFT / Hartree-Fock s.c.f. calculation:
  | Note that this energy does not include ANY quantities calculated after the
  | s.c.f. cycle, in particular not ANY RPA, MP2, etc. many-body perturbation terms.

  Final zero-broadening corrected energy:
  | For metallic systems only, a broadening of the occupation numbers at the Fermi
  | level can be extrapolated back to zero broadening by an electron-gas inspired
  | formula. For all systems that are not real metals, this value can be
  | meaningless and should be avoided.

------------------------------------------------------------------------------

------------------------------------------------------------
          Leaving FHI-aims.
          Date     :  20220221, Time     :  151736.699

          Computational steps:
          | Number of self-consistency cycles          :           15

          Detailed time accounting                     :  max(cpu_time)    wall_clock(cpu1)
          | Total time                                 :       88.130 s          88.495 s
          | Preparation time                           :        0.160 s           0.163 s
          | Grid partitioning                          :        0.057 s           0.061 s
          | Preloading free-atom quantities on grid    :        0.005 s           0.005 s
          | Free-atom superposition energy             :        0.032 s           0.032 s
          | Total time for integrations                :       27.611 s          27.677 s
          | Total time for solution of K.-S. equations :        0.437 s           0.465 s
          | Total time for density update              :       48.951 s          49.060 s
          | Total time for mixing & preconditioning    :        2.912 s           2.919 s
          | Total time for Hartree multipole update    :        0.023 s           0.023 s
          | Total time for Hartree multipole sum       :        4.161 s           4.171 s
          | Total time for total energy evaluation     :        0.003 s           0.011 s
          | Total time for scaled ZORA corrections     :        0.000 s           0.000 s
          | Total time for vdW correction              :        1.270 s           1.273 s

          Have a nice day.
------------------------------------------------------------
