  MPI-parallelism will be employed.
------------------------------------------------------------
          Invoking FHI-aims ...
          Version 052014
          Git rev. (modified): 096c982 Merge branch master of fhiaims:/pub/localo[...]
          Compiled on 2016/12/16 at 15:22:01 on host login02.hpc.iitd.ac.in.

          When using FHI-aims, please cite the following reference:

          Volker Blum, Ralf Gehrke, Felix Hanke, Paula Havu,
          Ville Havu, Xinguo Ren, Karsten Reuter, and Matthias Scheffler,
          'Ab Initio Molecular Simulations with Numeric Atom-Centered Orbitals: FHI-aims',
          Computer Physics Communications 180, 2175-2196 (2009)

          For any questions about FHI-aims, please visit the aimsclub website
          with its forums and wiki. Contributions to both the forums and the
          wiki are warmly encouraged - they are for you, and everyone is welcome there.

------------------------------------------------------------

  Date     :  20220124, Time     :  173922.523
  Time zero on CPU 1             :   0.200230000000000E-01  s.
  Internal wall clock time zero  :           412277962.523  s.

  Using        8 parallel tasks.
  Task        0 on host khas028 reporting.
  Task        1 on host khas028 reporting.
  Task        2 on host khas028 reporting.
  Task        3 on host khas028 reporting.
  Task        4 on host khas028 reporting.
  Task        5 on host khas028 reporting.
  Task        6 on host khas028 reporting.
  Task        7 on host khas028 reporting.

  Performing system and environment tests:
  | Environment variable OMP_NUM_THREADS correctly set to 1.
  | Stacksize not measured: no C compiler
  | Checking for scalapack...
  | Testing pdtran()...
  | All pdtran() tests passed.

  Obtaining array dimensions for all initial allocations:
  
  -----------------------------------------------------------------------
  Parsing control.in (first pass over file, find array dimensions only).
  The contents of control.in will be repeated verbatim below
  unless switched off by setting 'verbatim_writeout .false.' .
  in the first line of control.in .
  -----------------------------------------------------------------------
  
    xc               pbe
    spin             collinear
    default_initial_moment 0
    relativistic     atomic_zora scalar 1e-9
    occupation_type  gaussian 0.001
    charge        0
    vdw_correction_hirshfeld
    KS_method        scalapack_fast
    mixer            pulay
    charge_mix_param  0.4
    spin_mix_param    0.6
    sc_accuracy_rho  1E-4
    sc_accuracy_eev  1E-5
    sc_accuracy_etot 1E-5
    sc_iter_limit    100
    empty_states     5
  ################################
  # For relaxation:
    relax_geometry trm 1E-3
    sc_accuracy_forces 1E-4
  ################################
  ################################################################################
  #
  #  FHI-aims code project
  # Volker Blum, Fritz Haber Institute Berlin, 2009
  #
  #  Suggested "tight" defaults for Co atom (to be pasted into control.in file)
  #
  #  Revised June 14, 2011.
  #     p and d functions of tier 2 now enabled by default, as the atom may change
  #     its occupation. Similar to Ni.
  #
  ################################################################################
    species        Co
  #     global species definitions
      nucleus      27
      mass         58.933195
  #
      l_hartree    6
  #
      cut_pot      4.0  2.0  1.0
      basis_dep_cutoff    1e-4
  #
      radial_base        52 7.0
      radial_multiplier  2
      angular_grids       specified
        division   0.3189   50
        division   0.6267  110
        division   0.9473  194
        division   1.1520  302
        division   1.3966  434
  #      division   1.6293  590
  #      division   1.8317  770
  #      division   2.0231  974
  #      division   2.4367 1202
  #      outer_grid   974
        outer_grid  434
  ################################################################################
  #
  #  Definition of "minimal" basis
  #
  ################################################################################
  #     valence basis states
      valence      4  s   2.
      valence      3  p   6.
      valence      3  d   7.
  #     ion occupancy
      ion_occ      4  s   1.
      ion_occ      3  p   6.
      ion_occ      3  d   6.
  ################################################################################
  #
  #  Suggested additional basis functions. For production calculations,
  #  uncomment them one after another (the most important basis functions are
  #  listed first).
  #
  #  Constructed for dimers: 1.8, 2.0, 2.5, 3.5 Ang
  #
  ################################################################################
  #  "First tier" (improvements: -167.79 meV ...  -15.31 meV)
       hydro 3 p 5.8
       hydro 4 f 8.2
       hydro 3 d 5.4
       hydro 5 g 12
       ionic 4 s auto
  #  "Second tier" (improvements: -8.83 meV ... -0.89 meV)
       ionic 4 p auto
  #     hydro 6 h 16.4
       hydro 4 d 5.6
  #     hydro 4 f 17.2
  #     hydro 1 s 0.75
  #  "Third tier" (improvements: -1.03 meV ... -0.06 meV)
  #     hydro 4 d 7.8
  #     hydro 2 p 5.8
  #     hydro 4 f 8
  #     hydro 5 g 11.6
  #     hydro 4 s 4.3
  #     hydro 6 h 14.4
  #  "Fourth tier" (minor improvements)
  #     hydro 5 f 16
  #     hydro 5 d 8
  #     hydro 4 p 10
  #     hydro 5 s 7.4
  
  ################################################################################
  #
  #  FHI-aims code project
  # Volker Blum, Fritz Haber Institute Berlin, 2009
  #
  #  Suggested "tight" defaults for Zr atom (to be pasted into control.in file)
  #
  ################################################################################
    species          Zr
  #     global species definitions
      nucleus        40
      mass           91.224
  #
      l_hartree      6
  #
      cut_pot        4.0  2.0  1.0
      basis_dep_cutoff    1e-4
  #
      radial_base    58  7.0
      radial_multiplier  2
      angular_grids specified
        division   0.3653   50
        division   0.8035  110
        division   1.2273  194
        division   1.4586  302
        division   1.6764  434
  #      division   1.9671  590
  #      division   2.1961  770
  #      division   2.3240  974
  #      division   3.4772 1202
  #      outer_grid  974
        outer_grid  434
  ################################################################################
  #
  #  Definition of "minimal" basis
  #
  ################################################################################
  #     valence basis states
      valence      5  s   2.
      valence      4  p   6.
      valence      4  d   2.
  #     ion occupancy
      ion_occ      5  s   1.
      ion_occ      4  p   6.
      ion_occ      4  d   1.
  ################################################################################
  #
  #  Suggested additional basis functions. For production calculations,
  #  uncomment them one after another (the most important basis functions are
  #  listed first).
  #
  #  Constructed for dimers: 1.9, 2.25, 3.00, 4.00 Ang
  #
  ################################################################################
  #  "First tier" - improvements: -605.96 meV to -18.06 meV
       hydro 4 f 7.2
       ionic 4 d auto
       ionic 5 p auto
       hydro 5 g 10.4
       ionic 5 s auto
  #  "Second tier" - improvements: -32.47 meV to -1.41 meV
  #     hydro 4 f 10.4
  #     hydro 6 h 14.8
  #     hydro 4 d 6.2
  #     hydro 4 p 4.4
  #     hydro 4 f 20
  #     hydro 5 s 6
  #  "Third tier" - improvements: -1.99 meV and lower.
  #     hydro 4 f 5.8
  #     hydro 5 g 10.8
  #     hydro 2 p 1
  #     hydro 3 d 8
  #     hydro 6 h 14.4
  #     hydro 1 s 0.9
  #  Further functions (approx -0.40 meV and below possible)
  
  -----------------------------------------------------------------------
  Completed first pass over input file control.in .
  -----------------------------------------------------------------------
  
  
  -----------------------------------------------------------------------
  Parsing geometry.in (first pass over file, find array dimensions only).
  The contents of geometry.in will be repeated verbatim below
  unless switched off by setting 'verbatim_writeout .false.' .
  in the first line of geometry.in .
  -----------------------------------------------------------------------
  
  atom	0	0	0	Co
  atom	0	0	2	Co
  atom	0	0	4	Zr
  atom	0	0	6	Co
  
  -----------------------------------------------------------------------
  Completed first pass over input file geometry.in .
  -----------------------------------------------------------------------
  

  Basic array size parameters:
  | Number of species                 :        2
  | Number of atoms                   :        4
  | Max. basis fn. angular momentum   :        4
  | Max. atomic/ionic basis occupied n:        5
  | Max. number of basis fn. types    :        3
  | Max. radial fns per species/type  :       10
  | Max. logarithmic grid size        :     1432
  | Max. radial integration grid size :      117
  | Max. angular integration grid size:      434
  | Max. angular grid division number :        8
  | Radial grid for Hartree potential :     1432
  | Number of spin channels           :        2

------------------------------------------------------------
          Reading file control.in.
------------------------------------------------------------
  XC: Using PBE gradient-corrected functionals.
  Spin treatment: Spin density functional theory - collinear spins.
  Initial spin moment per atom:   0.0000
  Scalar relativistic treatment of kinetic energy: on-site free-atom approximation to ZORA.
  Occupation type: Gaussian broadening, width =   0.100000E-02 eV.
  Charge =   0.000000E+00: Neutral system requested explicitly.
  Using non-empirical van der Waals correction (Hirshfeld partitioning):
  Kohn-Sham eigenvalues and eigenfunctions calculated by the ELPA eigensolver library.
  Using pulay charge density mixing.
  Charge density mixing - mixing parameter:     0.4000
  Spin density mixing - mixing parameter:     0.6000
  Convergence accuracy of self-consistent charge density: 0.1000E-03
  Convergence accuracy of sum of eigenvalues: 0.1000E-04
  Convergence accuracy of total energy: 0.1000E-04
  Maximum number of s.-c. iterations  :   100
  Number of empty states per atom:        5
  Geometry relaxation: Modified BFGS - TRM (trust radius method, i.e., trusted quadratic extrapolation).
  Convergence accuracy for geometry relaxation: Maximum force <   0.100000E-02 eV/A.
  Convergence accuracy of forces: 0.1000E-03
 
  Reading configuration options for species Co                  .
  | Found nuclear charge :  27.0000
  | Found atomic mass :    58.9331950000000      amu
  | Found l_max for Hartree potential  :   6
  | Found cutoff potl. onset [A], width [A], scale factor :    4.00000    2.00000    1.00000
  | Threshold for basis-dependent cutoff potential is   0.100000E-03
  | Found data for basic radial integration grid :    52 points, outermost radius =    7.000 A
  | Found multiplier for basic radial grid :   2
  | Found angular grid specification: user-specified.
  | Specified grid contains     6 separate shells.
  | Check grid settings after all constraints further below.
  | Found free-atom valence shell :  4 s   2.000
  | Found free-atom valence shell :  3 p   6.000
  | Found free-atom valence shell :  3 d   7.000
  | Found free-ion valence shell :  4 s   1.000
  | Found free-ion valence shell :  3 p   6.000
  | Found free-ion valence shell :  3 d   6.000
  | Found hydrogenic basis function :  3 p   5.800
  | Found hydrogenic basis function :  4 f   8.200
  | Found hydrogenic basis function :  3 d   5.400
  | Found hydrogenic basis function :  5 g  12.000
  | Found ionic basis function :  4 s , default cutoff radius.
  | Found ionic basis function :  4 p , default cutoff radius.
  | Found hydrogenic basis function :  4 d   5.600
  Species Co                  : Missing cutoff potential type.
  Defaulting to exp(1/x)/(1-x)^2 type cutoff potential.
  Species Co: No 'logarithmic' tag. Using default grid for free atom:
  | Default logarithmic grid data [bohr] : 0.1000E-03 0.1000E+03 0.1012E+01
  | Will include ionic basis functions of  2.0-fold positive Co                   ion.
  Species Co: On-site basis accuracy parameter (for Gram-Schmidt orthonormalisation) not specified.
  Using default value basis_acc =  0.1000000E-03.
  Species Co                  : Using default innermost maximum threshold i_radial=  2 for radial functions.
  Species Co                  : Default cutoff onset for free atom density etc. : 0.40000000E+01 AA.
  Species Co                  : Basic radial grid will be enhanced according to radial_multiplier =   2, to contain   105 grid points.
 
  Reading configuration options for species Zr                  .
  | Found nuclear charge :  40.0000
  | Found atomic mass :    91.2240000000000      amu
  | Found l_max for Hartree potential  :   6
  | Found cutoff potl. onset [A], width [A], scale factor :    4.00000    2.00000    1.00000
  | Threshold for basis-dependent cutoff potential is   0.100000E-03
  | Found data for basic radial integration grid :    58 points, outermost radius =    7.000 A
  | Found multiplier for basic radial grid :   2
  | Found angular grid specification: user-specified.
  | Specified grid contains     6 separate shells.
  | Check grid settings after all constraints further below.
  | Found free-atom valence shell :  5 s   2.000
  | Found free-atom valence shell :  4 p   6.000
  | Found free-atom valence shell :  4 d   2.000
  | Found free-ion valence shell :  5 s   1.000
  | Found free-ion valence shell :  4 p   6.000
  | Found free-ion valence shell :  4 d   1.000
  | Found hydrogenic basis function :  4 f   7.200
  | Found ionic basis function :  4 d , default cutoff radius.
  | Found ionic basis function :  5 p , default cutoff radius.
  | Found hydrogenic basis function :  5 g  10.400
  | Found ionic basis function :  5 s , default cutoff radius.
  Species Zr                  : Missing cutoff potential type.
  Defaulting to exp(1/x)/(1-x)^2 type cutoff potential.
  Species Zr: No 'logarithmic' tag. Using default grid for free atom:
  | Default logarithmic grid data [bohr] : 0.1000E-03 0.1000E+03 0.1012E+01
  | Will include ionic basis functions of  2.0-fold positive Zr                   ion.
  Species Zr: On-site basis accuracy parameter (for Gram-Schmidt orthonormalisation) not specified.
  Using default value basis_acc =  0.1000000E-03.
  Species Zr                  : Using default innermost maximum threshold i_radial=  2 for radial functions.
  Species Zr                  : Default cutoff onset for free atom density etc. : 0.40000000E+01 AA.
  Species Zr                  : Basic radial grid will be enhanced according to radial_multiplier =   2, to contain   117 grid points.
 
  Finished reading input file 'control.in'. Consistency checks are next.
 
  Target number of points in a grid batch is not set. Defaulting to  100
  Method for grid partitioning is not set. Defaulting to parallel hash+maxmin partitioning.
  Batch size limit is not set. Defaulting to    200
  By default, will store active basis functions for each batch.
  If in need of memory, prune_basis_once .false. can be used to disable this option.
  communication_type for Hartree potential was not specified.
  Defaulting to calc_hartree .
  Pulay mixer: Number of relevant iterations not set.
  Defaulting to    8 iterations.
  Pulay mixer: Number of initial linear mixing iterations not set.
  Defaulting to    0 iterations.
  Work space size for distributed Hartree potential not set.
  Defaulting to   0.200000E+03 MB.
  Algorithm-dependent basis array size parameters:
  | n_max_pulay                         :        8
  No maximum number of relaxation steps, defaulting to     1000
  Default initial Hessian is Lindh matrix (thres = 15.00) plus  0.200000E+01 eV/A^2 times unity.
  No maximum energy tolerance for TRM/BFGS moves, defaulting to   0.200000E-03
  No harmonic length scale. Defaulting to   0.250000E-01 A.
  No trust radius initializer. Defaulting to   0.200000E+00 A.
  Handling of forces: Unphysical translation and rotation will be removed from forces.
  No accuracy limit for integral partition fn. given. Defaulting to 0.1000E-14.
  No threshold value for u(r) in integrations given. Defaulting to 0.1000E-05.
  No accuracy for occupation numbers given. Defaulting to 0.1000E-07.
  No threshold value for occupation numbers given. Defaulting to 0.0000E+00.
  No accuracy for fermi level given. Defaulting to 0.1000E-19.
  Maximum # of iterations to find E_F not set. Defaulting to  200.
  Will not use alltoall communication since running on < 1024 CPUs.
  Threshold for basis singularities not set.
  Default threshold for basis singularities: 0.1000E-04
  partition_type (choice of integration weights) for integrals was not specified.
  | Using a version of the partition function of Stratmann and coworkers ('stratmann_smoother').
  | At each grid point, the set of atoms used to build the partition table is smoothly restricted to
  | only those atoms whose free-atom density would be non-zero at that grid point.
  Partitioning for Hartree potential was not defined. Using partition_type for integrals.
  | Adjusted default value of keyword multip_moments_threshold to:       0.10000000E-11
  | This value may affect high angular momentum components of the Hartree potential in periodic systems.
  No q(lm)/r^(l+1) cutoff set for long-range Hartree potential.
  | Using default value of  0.100000E-09 .
  | Verify using the multipole_threshold keyword.
  Defaulting to new monopole extrapolation.
  Density update method: automatic selection selected.
  Geometry relaxation: A file "geometry.in.next_step" is written out by default after each step.
  | This file contains the geometry of the current relaxation step as well as
  | the current Hessian matrix needed to restart the relaxation algorithm.
  | If you do not want part or all of this information, use the keywords
  | "write_restart_geometry" or "hessian_to_restart_geometry" to switch the output off.
------------------------------------------------------------


------------------------------------------------------------
          Reading geometry description geometry.in.
------------------------------------------------------------
  Input structure read successfully.
  The structure contains        4 atoms,  and a total of        121.000 electrons.

  Input geometry:
  | No unit cell requested.
  | Atomic structure:
  |       Atom                x [A]            y [A]            z [A]
  |    1: Species Co             0.000000         0.000000         0.000000
  |    2: Species Co             0.000000         0.000000         2.000000
  |    3: Species Zr             0.000000         0.000000         4.000000
  |    4: Species Co             0.000000         0.000000         6.000000
  |

  | The smallest distance between any two atoms is         2.00000000 AA.
  |
  | The first atom of this pair is atom number                      1 .
  | The second atom of this pair is atom number                     2 .

  Initial moments and charges:
  |  Atom   Moment         Charge        Species
  |     1   0.000000E+00   0.000000E+00   Co
  |     2   0.000000E+00   0.000000E+00   Co
  |     3   0.000000E+00   0.000000E+00   Zr
  |     4   0.000000E+00   0.000000E+00   Co

  Structure-dependent array size parameters: 
  | Number of distinct atom types in initial rho :        2
  | Maximum number of distinct radial functions  :       29
  | Maximum number of basis functions            :      193
  | Number of Kohn-Sham states (occupied + empty):       71
------------------------------------------------------------

------------------------------------------------------------
          Preparing all fixed parts of the calculation.
------------------------------------------------------------
  Determining machine precision:
    2.225073858507201E-308
  Setting up grids for atomic and cluster calculations.

  Creating wave function, potential, and density for free atoms.

  Species: Co

  List of occupied orbitals and eigenvalues:
    n    l              occ      energy [Ha]    energy [eV]
    1    0           2.0000      -281.566092     -7661.8032
    2    0           2.0000       -33.078778      -900.1193
    3    0           2.0000        -3.761161      -102.3464
    4    0           2.0000        -0.199094        -5.4176
    2    1           6.0000       -28.325360      -770.7723
    3    1           6.0000        -2.409500       -65.5658
    3    2           7.0000        -0.299474        -8.1491


  Species: Zr

  List of occupied orbitals and eigenvalues:
    n    l              occ      energy [Ha]    energy [eV]
    1    0           2.0000      -668.722933    -18196.8768
    2    0           2.0000       -91.076987     -2478.3309
    3    0           2.0000       -14.873383      -404.7254
    4    0           2.0000        -1.994212       -54.2653
    5    0           2.0000        -0.156460        -4.2575
    2    1           6.0000       -81.194469     -2209.4139
    3    1           6.0000       -11.667913      -317.5001
    4    1           6.0000        -1.184217       -32.2242
    3    2          10.0000        -6.414313      -174.5423
    4    2           2.0000        -0.125045        -3.4027

  Spin-polarized or charged system:
  Charge density initialized according to selected moments and charges.

  Creating spin-polarized density from free atoms.

  Species: Co
  Charge:   0.000000
  Moment:   0.000000

  List of occupied orbitals and eigenvalues:
    n    l      energy [Ha]    energy [eV]    occupation
  Spin-up
    1    0      -281.566092     -7661.8032     1.00000000
    2    0       -33.078778      -900.1193     1.00000000
    3    0        -3.761161      -102.3464     1.00000000
    4    0        -0.199094        -5.4176     1.00000000
    2    1       -28.325360      -770.7723     3.00000000
    3    1        -2.409500       -65.5658     3.00000000
    3    2        -0.299474        -8.1491     3.50000000
  Spin-down
    1    0      -281.566092     -7661.8032     1.00000000
    2    0       -33.078778      -900.1193     1.00000000
    3    0        -3.761161      -102.3464     1.00000000
    4    0        -0.199094        -5.4176     1.00000000
    2    1       -28.325360      -770.7723     3.00000000
    3    1        -2.409500       -65.5658     3.00000000
    3    2        -0.299474        -8.1491     3.50000000


  Species: Zr
  Charge:   0.000000
  Moment:   0.000000

  List of occupied orbitals and eigenvalues:
    n    l      energy [Ha]    energy [eV]    occupation
  Spin-up
    1    0      -668.722933    -18196.8768     1.00000000
    2    0       -91.076987     -2478.3309     1.00000000
    3    0       -14.873383      -404.7254     1.00000000
    4    0        -1.994212       -54.2653     1.00000000
    5    0        -0.156460        -4.2575     1.00000000
    2    1       -81.194469     -2209.4139     3.00000000
    3    1       -11.667913      -317.5001     3.00000000
    4    1        -1.184217       -32.2242     3.00000000
    3    2        -6.414313      -174.5423     5.00000000
    4    2        -0.125045        -3.4027     1.00000000
  Spin-down
    1    0      -668.722933    -18196.8768     1.00000000
    2    0       -91.076987     -2478.3309     1.00000000
    3    0       -14.873383      -404.7254     1.00000000
    4    0        -1.994212       -54.2653     1.00000000
    5    0        -0.156460        -4.2575     1.00000000
    2    1       -81.194469     -2209.4139     3.00000000
    3    1       -11.667913      -317.5001     3.00000000
    4    1        -1.184217       -32.2242     3.00000000
    3    2        -6.414313      -174.5423     5.00000000
    4    2        -0.125045        -3.4027     1.00000000

  Creating fixed part of basis set: Ionic, confined, hydrogenic.
 
  Co                   ion:

  List of free ionic orbitals and eigenvalues:
    n    l      energy [Ha]    energy [eV]
    1    0      -282.564401     -7688.9686
    2    0       -34.086672      -927.5455
    3    0        -4.733406      -128.8025
    4    0        -0.850278       -23.1373
    2    1       -29.331608      -798.1537
    3    1        -3.374486       -91.8244
    3    2        -1.228934       -33.4410


  List of ionic basis orbitals and eigenvalues:
    n    l      energy [Ha]    energy [eV]    outer radius [A]
    4    0        -0.850268       -23.1370       5.017573
    4    1        -0.602640       -16.3987       5.399446

 
  Co                   hydrogenic:
 
  List of hydrogenic basis orbitals: 
    n    l      effective z      eigenvalue [eV]  inner max. [A]     outer max. [A]     outer radius [A]   
    3    1         5.800000       -50.8549           0.273460           1.088525           4.494802
    4    3         8.200000       -57.1778           1.036577           1.036577           4.550088
    3    2         5.400000       -44.0822           0.884263           0.884263           4.494802
    5    4        12.000000       -78.3687           1.101914           1.101914           4.440187
    4    2         5.600000       -26.6539           0.643489           2.005859           5.465859
 
 
  Zr                   ion:

  List of free ionic orbitals and eigenvalues:
    n    l      energy [Ha]    energy [eV]
    1    0      -669.421026    -18215.8729
    2    0       -91.769634     -2497.1788
    3    0       -15.560469      -423.4219
    4    0        -2.663352       -72.4735
    5    0        -0.640863       -17.4388
    2    1       -81.886574     -2228.2470
    3    1       -12.354892      -336.1937
    4    1        -1.844122       -50.1811
    3    2        -7.101714      -193.2475
    4    2        -0.726930       -19.7808


  List of ionic basis orbitals and eigenvalues:
    n    l      energy [Ha]    energy [eV]    outer radius [A]
    4    2        -0.726920       -19.7805       5.008334
    5    1        -0.469561       -12.7774       5.455794
    5    0        -0.640774       -17.4363       5.389503

 
  Zr                   hydrogenic:
 
  List of hydrogenic basis orbitals: 
    n    l      effective z      eigenvalue [eV]  inner max. [A]     outer max. [A]     outer radius [A]   
    4    3         7.200000       -44.0822           1.169212           1.169212           5.008334
    5    4        10.400000       -58.8635           1.273673           1.273673           4.887365
 

  Adding cutoff potential to free-atom effective potential.
  Creating atomic-like basis functions for current effective potential.

  Species Co                  :

  List of atomic basis orbitals and eigenvalues:
    n    l      energy [Ha]    energy [eV]    outer radius [A]
    1    0      -281.566092     -7661.8032       0.394613
    2    0       -33.078778      -900.1193       1.157136
    3    0        -3.761161      -102.3464       3.311155
    4    0        -0.199094        -5.4176       5.399446
    2    1       -28.325360      -770.7723       1.215127
    3    1        -2.409500       -65.5658       3.977573
    3    2        -0.299474        -8.1491       5.269030


  Species Zr                  :

  List of atomic basis orbitals and eigenvalues:
    n    l      energy [Ha]    energy [eV]    outer radius [A]
    1    0      -668.722933    -18196.8768       0.259930
    2    0       -91.076987     -2478.3309       0.725827
    3    0       -14.873383      -404.7254       1.771771
    4    0        -1.994212       -54.2653       4.541709
    5    0        -0.156460        -4.2575       5.455794
    2    1       -81.194469     -2209.4139       0.743792
    3    1       -11.667913      -317.5001       1.930067
    4    1        -1.184217       -32.2242       5.008334
    3    2        -6.414313      -174.5423       2.434714
    4    2        -0.125045        -3.4027       5.389503

  Assembling full basis from fixed parts.
  | Species Co :   atomic orbital   1 s accepted.
  | Species Co :   atomic orbital   2 s accepted.
  | Species Co :   atomic orbital   3 s accepted.
  | Species Co :    ionic orbital   4 s accepted.
  | Species Co :   atomic orbital   4 s accepted.
  | Species Co :   atomic orbital   2 p accepted.
  | Species Co :   atomic orbital   3 p accepted.
  | Species Co :    hydro orbital   3 p accepted.
  | Species Co :    ionic orbital   4 p accepted.
  | Species Co :    hydro orbital   3 d accepted.
  | Species Co :   atomic orbital   3 d accepted.
  | Species Co :    hydro orbital   4 d accepted.
  | Species Co :    hydro orbital   4 f accepted.
  | Species Co :    hydro orbital   5 g accepted.
  | Species Zr :   atomic orbital   1 s accepted.
  | Species Zr :   atomic orbital   2 s accepted.
  | Species Zr :   atomic orbital   3 s accepted.
  | Species Zr :   atomic orbital   4 s accepted.
  | Species Zr :    ionic orbital   5 s accepted.
  | Species Zr :   atomic orbital   5 s accepted.
  | Species Zr :   atomic orbital   2 p accepted.
  | Species Zr :   atomic orbital   3 p accepted.
  | Species Zr :   atomic orbital   4 p accepted.
  | Species Zr :    ionic orbital   5 p accepted.
  | Species Zr :   atomic orbital   3 d accepted.
  | Species Zr :    ionic orbital   4 d accepted.
  | Species Zr :   atomic orbital   4 d accepted.
  | Species Zr :    hydro orbital   4 f accepted.
  | Species Zr :    hydro orbital   5 g accepted.
 
  Basis size parameters after reduction:
  | Total number of radial functions:       29
  | Total number of basis functions :      193
 
  Testing on-site integration grid accuracy.
  |  Species  Function  <phi|h_atom|phi> (log., in eV)  <phi|h_atom|phi> (rad., in eV)
           1        1              -7661.8031969867              -7661.8029260849
           1        2               -900.1193394436               -900.1193358362
           1        3               -102.3464062200               -102.3464054597
           1        4                 -4.5136676415                 -4.5136684488
           1        5                  5.2956911928                  5.2959272761
           1        6               -770.7722641523               -770.7722638539
           1        7                -65.5658195253                -65.5658190573
           1        8                  4.1689597085                  4.1689599828
           1        9                 11.7969993559                 11.7970095039
           1       10                  6.0390118236                  6.0390118634
           1       11                 12.9242487525                 12.9242490163
           1       12                 18.9576570498                 18.9576800677
           1       13                 32.4985635122                 32.4985635847
           1       14                 58.0457734223                 58.0457733072
           2       15             -18196.8768435665             -18196.8755705220
           2       16              -2478.3309144498              -2478.3308916069
           2       17               -404.7253557491               -404.7253534742
           2       18                -54.2652640714                -54.2652635286
           2       19                 -3.7119764275                 -3.7119846577
           2       20                  4.5875772639                  4.5868905659
           2       21              -2209.4139097225              -2209.4139071812
           2       22               -317.5000788444               -317.5000777556
           2       23                -32.2241784576                -32.2241781542
           2       24                 -0.3319152745                 -0.3319660629
           2       25               -174.5423275335               -174.5423272575
           2       26                 -3.0504029429                 -3.0504025329
           2       27                  4.9970437712                  4.9966978803
           2       28                 16.8632595236                 16.8632598612
           2       29                 37.0867992037                 37.0867988501

  Preparing densities etc. for the partition functions (integrals / Hartree potential).

  Preparations completed.
  max(cpu_time)          :      0.880 s.
  Wall clock time (cpu1) :      0.883 s.
------------------------------------------------------------

------------------------------------------------------------
          Begin self-consistency loop: Initialization.

          Date     :  20220124, Time     :  173923.472
------------------------------------------------------------

  Initializing index lists of integration centers etc. from given atomic structure:
  | Number of centers in hartree potential         :         4
  | Number of centers in hartree multipole         :         4
  | Number of centers in electron density summation:         4
  | Number of centers in basis integrals           :         4
  | Number of centers in integrals                 :         4
  Initializing relaxation algorithms.
  Using modified Scalapack Eigenvalue solver (ELPA)
  * Using 8 tasks for Scalapack Eigenvalue solver.
  Detailed listing of tasks and assigned k-points:
  (for non-periodic systems, the "k-point" denotes an internal label only)
   Task     0 k-point     1 on khas028
   Task     1 k-point     1 on khas028
   Task     2 k-point     1 on khas028
   Task     3 k-point     1 on khas028
   Task     4 k-point     1 on khas028
   Task     5 k-point     1 on khas028
   Task     6 k-point     1 on khas028
   Task     7 k-point     1 on khas028
  Tasks:     8 split into      4 X      2 BLACS grid
  Calculating blocksize based on n_basis =          193 max_nprow =            4 max_npcol =            2
  Scalapack blocksize set to:           16
  Required Scalapack workspace - INTEGER:            1 REAL:             1
  Partitioning the integration grid into batches with parallel hashing+maxmin method.
  | Number of batches:     1001
  | Maximal batch size:     180
  | Minimal batch size:      49
  | Average batch size:      91.612
  | Standard deviation of batch sizes:      24.046

  Integration load balanced across     8 MPI tasks.
  Work distribution over tasks is as follows:
  Task     0 has      11529 integration points.
  Task     1 has      11516 integration points.
  Task     2 has      11414 integration points.
  Task     3 has      11430 integration points.
  Task     4 has      11433 integration points.
  Task     5 has      11492 integration points.
  Task     6 has      11451 integration points.
  Task     7 has      11439 integration points.
  Initializing partition tables, free-atom densities, potentials, etc. across the integration grid (initialize_grid_storage).
  | initialize_grid_storage: Actual outermost partition radius vs. multipole_radius_free
  | (-- VB: in principle, multipole_radius_free should be larger, hence this output)
  | Species        1: outer_partition_radius =              6.000000000000000 AA, multipole_radius_free =              6.027432917222699 AA.
  | Species        2: outer_partition_radius =              6.000000000000000 AA, multipole_radius_free =              6.016333975203386 AA.
  | Original list of interatomic distances with           4 x          4 entries is created.
  | Net number of integration points:    91704
  | of which are non-zero points    :    86056
  Obtaining max. number of non-zero basis functions in each batch (get_n_compute_maxes).
  | Maximal number of non-zero basis functions:      181 in task     0
  | Maximal number of non-zero basis functions:      181 in task     1
  | Maximal number of non-zero basis functions:      181 in task     2
  | Maximal number of non-zero basis functions:      181 in task     3
  | Maximal number of non-zero basis functions:      181 in task     4
  | Maximal number of non-zero basis functions:      181 in task     5
  | Maximal number of non-zero basis functions:      181 in task     6
  | Maximal number of non-zero basis functions:      181 in task     7
  Selecting the method for density update.
  Loop over occupied states selected for charge density update.
  Integrating Hamiltonian matrix: batch-based integration.
  Time summed over all CPUs for integration: real work        0.909 s, elapsed        0.958 s
  Integrating overlap matrix.
  Time summed over all CPUs for integration: real work        0.286 s, elapsed        0.302 s
  Deallocating overlap matrix.

  Updating Kohn-Sham eigenvalues, eigenvectors, occupation numbers, and Fermi level.
  Solving generalized eigenproblem
  Solving real symmetric generalised eigenvalue problem by standard ScaLAPACK.
  Transforming overlap matrix with ScaLAPACK and checking for singularities.
  : Overlap matrix is nonsingular, using Cholesky decomposition
  | Lowest eigenvalue:  0.686523E-03
  Factoring overlap matrix with Cholesky decomposition
  Using Cholesky factor for transformation
  Using 1-stage real ELPA solver
  Solving real symmetric generalised eigenvalue problem by standard ScaLAPACK.
  Using Cholesky factor for transformation
  Using 1-stage real ELPA solver
  Determining occupation numbers for Kohn-Sham eigenstates.
  | Chemical potential (Fermi level) in eV                 : -.82602484E+01
  | Error in electron count due to remaining E_F inaccuracy: -.37344705E-08
  | Maximum occupation number of highest empty state:  0.00E+00

  Writing Kohn-Sham eigenvalues.

  Spin-up eigenvalues:

  State    Occupation    Eigenvalue [Ha]    Eigenvalue [eV]
      1       1.00000        -668.759410       -18197.86945
      2       1.00000        -281.637045        -7663.73391
      3       1.00000        -281.618633        -7663.23291
      4       1.00000        -281.584462        -7662.30306
      5       1.00000         -91.114102        -2479.34086
      6       1.00000         -81.231890        -2210.43220
      7       1.00000         -81.231364        -2210.41787
      8       1.00000         -81.231364        -2210.41787
      9       1.00000         -33.151129         -902.08811
     10       1.00000         -33.132282         -901.57527
     11       1.00000         -33.097691         -900.63401
     12       1.00000         -28.398858         -772.77223
     13       1.00000         -28.396736         -772.71449
     14       1.00000         -28.396736         -772.71449
     15       1.00000         -28.379627         -772.24894
     16       1.00000         -28.378194         -772.20994
     17       1.00000         -28.378194         -772.20994
     18       1.00000         -28.344637         -771.29681
     19       1.00000         -28.343959         -771.27837
     20       1.00000         -28.343959         -771.27837
     21       1.00000         -14.913016         -405.80382
     22       1.00000         -11.711408         -318.68363
     23       1.00000         -11.705790         -318.53074
     24       1.00000         -11.705790         -318.53074
     25       1.00000          -6.456989         -175.70361
     26       1.00000          -6.455296         -175.65755
     27       1.00000          -6.455296         -175.65755
     28       1.00000          -6.451426         -175.55224
     29       1.00000          -6.451426         -175.55224
     30       1.00000          -3.845442         -104.63980
     31       1.00000          -3.823110         -104.03213
     32       1.00000          -3.784293         -102.97586
     33       1.00000          -2.519183          -68.55047
     34       1.00000          -2.486850          -67.67063
     35       1.00000          -2.485365          -67.63021
     36       1.00000          -2.485365          -67.63021
     37       1.00000          -2.465289          -67.08392
     38       1.00000          -2.465289          -67.08392
     39       1.00000          -2.438354          -66.35099
     40       1.00000          -2.429907          -66.12113
     41       1.00000          -2.429907          -66.12113
     42       1.00000          -2.053922          -55.89007
     43       1.00000          -1.296090          -35.26839
     44       1.00000          -1.232729          -33.54427
     45       1.00000          -1.232729          -33.54427
     46       1.00000          -0.464636          -12.64338
     47       1.00000          -0.433720          -11.80212
     48       1.00000          -0.433720          -11.80212
     49       1.00000          -0.388348          -10.56748
     50       1.00000          -0.388348          -10.56748
     51       1.00000          -0.386455          -10.51598
     52       1.00000          -0.374869          -10.20071
     53       1.00000          -0.374869          -10.20071
     54       1.00000          -0.354640           -9.65024
     55       1.00000          -0.354640           -9.65024
     56       1.00000          -0.326344           -8.88027
     57       1.00000          -0.324221           -8.82249
     58       1.00000          -0.324221           -8.82249
     59       1.00000          -0.318401           -8.66412
     60       1.00000          -0.318401           -8.66412
     61       0.50000          -0.303559           -8.26025
     62       0.00000          -0.257835           -7.01604
     63       0.00000          -0.194694           -5.29790
     64       0.00000          -0.194694           -5.29790
     65       0.00000          -0.168713           -4.59092
     66       0.00000          -0.162197           -4.41361
     67       0.00000          -0.162197           -4.41360
     68       0.00000          -0.160657           -4.37170
     69       0.00000          -0.113029           -3.07568
     70       0.00000          -0.113029           -3.07568
     71       0.00000          -0.071779           -1.95320

  Spin-down eigenvalues:

  State    Occupation    Eigenvalue [Ha]    Eigenvalue [eV]
      1       1.00000        -668.759410       -18197.86945
      2       1.00000        -281.637045        -7663.73391
      3       1.00000        -281.618633        -7663.23291
      4       1.00000        -281.584462        -7662.30306
      5       1.00000         -91.114102        -2479.34086
      6       1.00000         -81.231890        -2210.43220
      7       1.00000         -81.231364        -2210.41787
      8       1.00000         -81.231364        -2210.41787
      9       1.00000         -33.151129         -902.08811
     10       1.00000         -33.132282         -901.57527
     11       1.00000         -33.097691         -900.63401
     12       1.00000         -28.398858         -772.77223
     13       1.00000         -28.396736         -772.71449
     14       1.00000         -28.396736         -772.71449
     15       1.00000         -28.379627         -772.24894
     16       1.00000         -28.378194         -772.20994
     17       1.00000         -28.378194         -772.20994
     18       1.00000         -28.344637         -771.29681
     19       1.00000         -28.343959         -771.27837
     20       1.00000         -28.343959         -771.27837
     21       1.00000         -14.913016         -405.80382
     22       1.00000         -11.711408         -318.68363
     23       1.00000         -11.705790         -318.53074
     24       1.00000         -11.705790         -318.53074
     25       1.00000          -6.456989         -175.70361
     26       1.00000          -6.455296         -175.65755
     27       1.00000          -6.455296         -175.65755
     28       1.00000          -6.451426         -175.55224
     29       1.00000          -6.451426         -175.55224
     30       1.00000          -3.845442         -104.63980
     31       1.00000          -3.823110         -104.03213
     32       1.00000          -3.784293         -102.97586
     33       1.00000          -2.519183          -68.55047
     34       1.00000          -2.486850          -67.67063
     35       1.00000          -2.485365          -67.63021
     36       1.00000          -2.485365          -67.63021
     37       1.00000          -2.465289          -67.08392
     38       1.00000          -2.465289          -67.08392
     39       1.00000          -2.438354          -66.35099
     40       1.00000          -2.429907          -66.12113
     41       1.00000          -2.429907          -66.12113
     42       1.00000          -2.053922          -55.89007
     43       1.00000          -1.296090          -35.26839
     44       1.00000          -1.232729          -33.54427
     45       1.00000          -1.232729          -33.54427
     46       1.00000          -0.464636          -12.64338
     47       1.00000          -0.433720          -11.80212
     48       1.00000          -0.433720          -11.80212
     49       1.00000          -0.388348          -10.56748
     50       1.00000          -0.388348          -10.56748
     51       1.00000          -0.386455          -10.51598
     52       1.00000          -0.374869          -10.20071
     53       1.00000          -0.374869          -10.20071
     54       1.00000          -0.354640           -9.65024
     55       1.00000          -0.354640           -9.65024
     56       1.00000          -0.326344           -8.88027
     57       1.00000          -0.324221           -8.82249
     58       1.00000          -0.324221           -8.82249
     59       1.00000          -0.318401           -8.66412
     60       1.00000          -0.318401           -8.66412
     61       0.50000          -0.303559           -8.26025
     62       0.00000          -0.257835           -7.01604
     63       0.00000          -0.194694           -5.29790
     64       0.00000          -0.194694           -5.29790
     65       0.00000          -0.168713           -4.59092
     66       0.00000          -0.162197           -4.41361
     67       0.00000          -0.162197           -4.41360
     68       0.00000          -0.160657           -4.37170
     69       0.00000          -0.113029           -3.07568
     70       0.00000          -0.113029           -3.07568
     71       0.00000          -0.071779           -1.95320

  Current spin moment of the entire structure :
  | N = N_up - N_down :    0.00
  | S                 :    0.00
  | J                 :    1.00

  Highest occupied state (VBM) at     -8.66412316 eV
  | Occupation number:      1.00000000
  | Spin channel:        2

  Lowest unoccupied state (CBM) at    -8.26024838 eV
  | Occupation number:      0.50000000
  | Spin channel:        1

  Overall HOMO-LUMO gap:      0.40387478 eV.
  Calculating total energy contributions from superposition of free atom densities.

  Total energy components:
  | Sum of eigenvalues            :       -4661.29628213 Ha     -126840.32540136 eV
  | XC energy correction          :        -293.27876776 Ha       -7980.52131510 eV
  | XC potential correction       :         381.25818621 Ha       10374.56309860 eV
  | Free-atom electrostatic energy:       -3254.41312629 Ha      -88557.08690122 eV
  | Hartree energy correction     :           0.00000000 Ha           0.00000000 eV
  | van der Waals energy corr.    :           0.00000000 Ha           0.00000000 eV
  | Entropy correction            :          -0.00001037 Ha          -0.00028209 eV
  | ---------------------------
  | Total energy                  :       -7827.72998996 Ha     -213003.37051908 eV
  | Total energy, T -> 0          :       -7827.73000033 Ha     -213003.37080117 eV  <-- do not rely on this value for anything but (periodic) metals
  | Electronic free energy        :       -7827.73001070 Ha     -213003.37108327 eV

  Derived energy quantities:
  | Kinetic energy                :        7984.39293559 Ha      217266.38616933 eV
  | Electrostatic energy          :      -15518.84415779 Ha     -422289.23537331 eV
  | Energy correction for multipole
  | error in Hartree potential    :           0.00000000 Ha           0.00000000 eV
  | Sum of eigenvalues per atom                           :      -31710.08135034 eV
  | Total energy (T->0) per atom                          :      -53250.84270029 eV  <-- do not rely on this value for anything but (periodic) metals
  | Electronic free energy per atom                       :      -53250.84277082 eV
  Initialize hartree_potential_storage
  Max. number of atoms included in rho_multipole:            4

  End scf initialization - timings             :  max(cpu_time)    wall_clock(cpu1)
  | Time for scf. initialization               :        0.260 s           0.261 s
  | Boundary condition initialization          :        0.000 s           0.001 s
  | Relaxation initialization                  :        0.000 s           0.000 s
  | Integration                                :        0.159 s           0.159 s
  | Solution of K.-S. eqns.                    :        0.017 s           0.017 s
  | Grid partitioning                          :        0.026 s           0.026 s
  | Preloading free-atom quantities on grid    :        0.020 s           0.020 s
  | Free-atom superposition energy             :        0.012 s           0.012 s
  | Total energy evaluation                    :        0.000 s           0.001 s
------------------------------------------------------------

------------------------------------------------------------
          Begin self-consistency iteration #    1

  Date     :  20220124, Time     :  173923.733
------------------------------------------------------------
  Evaluating new KS density.
  Integration grid: deviation in total charge (<rho> - N_e) =   1.733241E-06
  | <rho_up-rho_dn> = N_up-N_dn =      0.0000; <|rho_up-rho_dn|> =      0.0000
  Pulay mixing of updated and previous charge densities.

  Evaluating partitioned Hartree potential by multipole expansion.
  | Analytical far-field extrapolation by fixed multipoles:
  | Hartree multipole sum: apparent total charge =  -0.231365E-05
  Summing up the Hartree potential.
  Time summed over all CPUs for potential: real work        0.251 s, elapsed        0.258 s
  | RMS charge density error from multipole expansion :   0.112143E-02

  Integrating Hamiltonian matrix: batch-based integration.
  Time summed over all CPUs for integration: real work        0.882 s, elapsed        0.925 s

  Updating Kohn-Sham eigenvalues, eigenvectors, occupation numbers, and Fermi level.
  Solving generalized eigenproblem
  Solving real symmetric generalised eigenvalue problem by standard ScaLAPACK.
  Using Cholesky factor for transformation
  Using 1-stage real ELPA solver
  Solving real symmetric generalised eigenvalue problem by standard ScaLAPACK.
  Using Cholesky factor for transformation
  Using 1-stage real ELPA solver
  Determining occupation numbers for Kohn-Sham eigenstates.
  | Chemical potential (Fermi level) in eV                 : 0.18502090E+00
  | Error in electron count due to remaining E_F inaccuracy: 0.14978241E-10
  | Maximum occupation number of highest empty state:  0.00E+00

  Writing Kohn-Sham eigenvalues.

  Spin-up eigenvalues:

  State    Occupation    Eigenvalue [Ha]    Eigenvalue [eV]
      1       1.00000        -668.919017       -18202.21256
      2       1.00000        -280.975282        -7645.72644
      3       1.00000        -280.727690        -7638.98910
      4       1.00000        -280.618530        -7636.01872
      5       1.00000         -91.267382        -2483.51182
      6       1.00000         -81.386164        -2214.63021
      7       1.00000         -81.386164        -2214.63021
      8       1.00000         -81.385448        -2214.61072
      9       1.00000         -32.507120         -884.56373
     10       1.00000         -32.266736         -878.02256
     11       1.00000         -32.154759         -874.97552
     12       1.00000         -27.753980         -755.22421
     13       1.00000         -27.745230         -754.98612
     14       1.00000         -27.745230         -754.98612
     15       1.00000         -27.510966         -748.61147
     16       1.00000         -27.504408         -748.43303
     17       1.00000         -27.504408         -748.43303
     18       1.00000         -27.400357         -745.60166
     19       1.00000         -27.392006         -745.37441
     20       1.00000         -27.392006         -745.37441
     21       1.00000         -15.049085         -409.50645
     22       1.00000         -11.844203         -322.29716
     23       1.00000         -11.844203         -322.29716
     24       1.00000         -11.842234         -322.24360
     25       1.00000          -6.591544         -179.36505
     26       1.00000          -6.591544         -179.36504
     27       1.00000          -6.590129         -179.32652
     28       1.00000          -6.590129         -179.32652
     29       1.00000          -6.589725         -179.31554
     30       1.00000          -3.402791          -92.59466
     31       1.00000          -3.191577          -86.84722
     32       1.00000          -3.082592          -83.88161
     33       1.00000          -2.158939          -58.74772
     34       1.00000          -2.083463          -56.69390
     35       1.00000          -2.059537          -56.04286
     36       1.00000          -2.059537          -56.04286
     37       1.00000          -1.883853          -51.26224
     38       1.00000          -1.850564          -50.35641
     39       1.00000          -1.850564          -50.35641
     40       1.00000          -1.761295          -47.92729
     41       1.00000          -1.748085          -47.56782
     42       1.00000          -1.748085          -47.56782
     43       1.00000          -1.335231          -36.33349
     44       1.00000          -1.333565          -36.28814
     45       1.00000          -1.333565          -36.28814
     46       1.00000          -0.295036           -8.02834
     47       1.00000          -0.295036           -8.02834
     48       1.00000          -0.278922           -7.58986
     49       1.00000          -0.255262           -6.94603
     50       1.00000          -0.249667           -6.79380
     51       1.00000          -0.249667           -6.79378
     52       1.00000          -0.144676           -3.93684
     53       1.00000          -0.112910           -3.07244
     54       1.00000          -0.112910           -3.07244
     55       1.00000          -0.053152           -1.44634
     56       1.00000          -0.050901           -1.38510
     57       1.00000          -0.050901           -1.38510
     58       1.00000          -0.047248           -1.28567
     59       1.00000          -0.047248           -1.28567
     60       1.00000          -0.040899           -1.11291
     61       0.50000           0.006799            0.18502
     62       0.00000           0.040278            1.09603
     63       0.00000           0.040278            1.09603
     64       0.00000           0.092639            2.52083
     65       0.00000           0.092639            2.52084
     66       0.00000           0.092773            2.52447
     67       0.00000           0.092773            2.52447
     68       0.00000           0.104813            2.85210
     69       0.00000           0.117101            3.18649
     70       0.00000           0.141174            3.84155
     71       0.00000           0.144579            3.93420

  Spin-down eigenvalues:

  State    Occupation    Eigenvalue [Ha]    Eigenvalue [eV]
      1       1.00000        -668.919017       -18202.21256
      2       1.00000        -280.975282        -7645.72644
      3       1.00000        -280.727690        -7638.98910
      4       1.00000        -280.618530        -7636.01872
      5       1.00000         -91.267382        -2483.51182
      6       1.00000         -81.386164        -2214.63021
      7       1.00000         -81.386164        -2214.63021
      8       1.00000         -81.385448        -2214.61072
      9       1.00000         -32.507120         -884.56373
     10       1.00000         -32.266736         -878.02256
     11       1.00000         -32.154759         -874.97552
     12       1.00000         -27.753980         -755.22421
     13       1.00000         -27.745230         -754.98612
     14       1.00000         -27.745230         -754.98612
     15       1.00000         -27.510966         -748.61147
     16       1.00000         -27.504408         -748.43303
     17       1.00000         -27.504408         -748.43303
     18       1.00000         -27.400357         -745.60166
     19       1.00000         -27.392006         -745.37441
     20       1.00000         -27.392006         -745.37441
     21       1.00000         -15.049085         -409.50645
     22       1.00000         -11.844203         -322.29716
     23       1.00000         -11.844203         -322.29716
     24       1.00000         -11.842234         -322.24360
     25       1.00000          -6.591544         -179.36505
     26       1.00000          -6.591544         -179.36504
     27       1.00000          -6.590129         -179.32652
     28       1.00000          -6.590129         -179.32652
     29       1.00000          -6.589725         -179.31554
     30       1.00000          -3.402791          -92.59466
     31       1.00000          -3.191577          -86.84722
     32       1.00000          -3.082592          -83.88161
     33       1.00000          -2.158939          -58.74772
     34       1.00000          -2.083463          -56.69390
     35       1.00000          -2.059537          -56.04286
     36       1.00000          -2.059537          -56.04286
     37       1.00000          -1.883853          -51.26224
     38       1.00000          -1.850564          -50.35641
     39       1.00000          -1.850564          -50.35641
     40       1.00000          -1.761295          -47.92729
     41       1.00000          -1.748085          -47.56782
     42       1.00000          -1.748085          -47.56782
     43       1.00000          -1.335231          -36.33349
     44       1.00000          -1.333565          -36.28814
     45       1.00000          -1.333565          -36.28814
     46       1.00000          -0.295036           -8.02834
     47       1.00000          -0.295036           -8.02834
     48       1.00000          -0.278922           -7.58986
     49       1.00000          -0.255262           -6.94603
     50       1.00000          -0.249667           -6.79380
     51       1.00000          -0.249667           -6.79378
     52       1.00000          -0.144676           -3.93684
     53       1.00000          -0.112910           -3.07244
     54       1.00000          -0.112910           -3.07244
     55       1.00000          -0.053152           -1.44634
     56       1.00000          -0.050901           -1.38510
     57       1.00000          -0.050901           -1.38510
     58       1.00000          -0.047248           -1.28567
     59       1.00000          -0.047248           -1.28567
     60       1.00000          -0.040899           -1.11291
     61       0.50000           0.006799            0.18502
     62       0.00000           0.040278            1.09603
     63       0.00000           0.040278            1.09603
     64       0.00000           0.092639            2.52083
     65       0.00000           0.092639            2.52084
     66       0.00000           0.092773            2.52447
     67       0.00000           0.092773            2.52447
     68       0.00000           0.104813            2.85210
     69       0.00000           0.117101            3.18649
     70       0.00000           0.141174            3.84155
     71       0.00000           0.144579            3.93420

  Current spin moment of the entire structure :
  | N = N_up - N_down :    0.00
  | S                 :    0.00
  | J                 :    1.00

  Highest occupied state (VBM) at      0.18502090 eV
  | Occupation number:      0.50000000
  | Spin channel:        1
 * WARNING: The VBM is higher than the internal energy zero!

  Lowest unoccupied state (CBM) at     0.18502090 eV
  | Occupation number:      0.50000000
  | Spin channel:        2

  Overall HOMO-LUMO gap:      0.00000000 eV.

  Total energy components:
  | Sum of eigenvalues            :       -4620.47991740 Ha     -125729.65560679 eV
  | XC energy correction          :        -295.51014862 Ha       -8041.24027782 eV
  | XC potential correction       :         384.20544842 Ha       10454.76218398 eV
  | Free-atom electrostatic energy:       -3254.41312629 Ha      -88557.08690122 eV
  | Hartree energy correction     :         -46.67446418 Ha       -1270.07679122 eV
  | van der Waals energy corr.    :           0.00000000 Ha           0.00000000 eV
  | Entropy correction            :          -0.00001037 Ha          -0.00028209 eV
  | ---------------------------
  | Total energy                  :       -7832.87220807 Ha     -213143.29739308 eV
  | Total energy, T -> 0          :       -7832.87221843 Ha     -213143.29767517 eV  <-- do not rely on this value for anything but (periodic) metals
  | Electronic free energy        :       -7832.87222880 Ha     -213143.29795726 eV

  Derived energy quantities:
  | Kinetic energy                :        7996.00803851 Ha      217582.44920096 eV
  | Electrostatic energy          :      -15533.37009795 Ha     -422684.50631621 eV
  | Energy correction for multipole
  | error in Hartree potential    :          -0.00131975 Ha          -0.03591220 eV
  | Sum of eigenvalues per atom                           :      -31432.41390170 eV
  | Total energy (T->0) per atom                          :      -53285.82441879 eV  <-- do not rely on this value for anything but (periodic) metals
  | Electronic free energy per atom                       :      -53285.82448932 eV

  Self-consistency convergence accuracy:
  | Change of charge/spin density : 0.1230E+01 0.1015E-10
  | Change of sum of eigenvalues  : 0.1111E+04 eV
  | Change of total energy        : -.1399E+03 eV

  End self-consistency iteration #     1       :  max(cpu_time)    wall_clock(cpu1)
  | Time for this iteration                    :        0.301 s           0.301 s
  | Charge density update                      :        0.133 s           0.133 s
  | Density mixing                             :        0.003 s           0.003 s
  | Hartree multipole update                   :        0.003 s           0.002 s
  | Hartree multipole summation                :        0.033 s           0.033 s
  | Integration                                :        0.116 s           0.116 s
  | Solution of K.-S. eqns.                    :        0.009 s           0.010 s
  | Total energy evaluation                    :        0.000 s           0.000 s
------------------------------------------------------------

------------------------------------------------------------
          Begin self-consistency iteration #    2

  Date     :  20220124, Time     :  173924.038
------------------------------------------------------------
  Evaluating new KS density.
  Integration grid: deviation in total charge (<rho> - N_e) =   1.045950E-06
  | <rho_up-rho_dn> = N_up-N_dn =      0.0000; <|rho_up-rho_dn|> =      0.0000
  Pulay mixing of updated and previous charge densities.

  Evaluating partitioned Hartree potential by multipole expansion.
  | Analytical far-field extrapolation by fixed multipoles:
  | Hartree multipole sum: apparent total charge =  -0.166771E-05
  Summing up the Hartree potential.
  Time summed over all CPUs for potential: real work        0.251 s, elapsed        0.257 s
  | RMS charge density error from multipole expansion :   0.771558E-03

  Integrating Hamiltonian matrix: batch-based integration.
  Time summed over all CPUs for integration: real work        0.882 s, elapsed        0.921 s

  Updating Kohn-Sham eigenvalues, eigenvectors, occupation numbers, and Fermi level.
  Solving generalized eigenproblem
  Solving real symmetric generalised eigenvalue problem by standard ScaLAPACK.
  Using Cholesky factor for transformation
  Using 1-stage real ELPA solver
  Solving real symmetric generalised eigenvalue problem by standard ScaLAPACK.
  Using Cholesky factor for transformation
  Using 1-stage real ELPA solver
  Determining occupation numbers for Kohn-Sham eigenstates.
  | Chemical potential (Fermi level) in eV                 : -.21777153E+01
  | Error in electron count due to remaining E_F inaccuracy: -.25337954E-10
  | Maximum occupation number of highest empty state:  0.00E+00

  Current spin moment of the entire structure :
  | N = N_up - N_down :    0.00
  | S                 :    0.00
  | J                 :    1.00

  Highest occupied state (VBM) at     -2.17771531 eV
  | Occupation number:      0.50000002
  | Spin channel:        1

  Lowest unoccupied state (CBM) at    -2.17771531 eV
  | Occupation number:      0.49999998
  | Spin channel:        2

  Overall HOMO-LUMO gap:      0.00000000 eV.

  Total energy components:
  | Sum of eigenvalues            :       -4639.58338687 Ha     -126249.48745982 eV
  | XC energy correction          :        -294.24331337 Ha       -8006.76793675 eV
  | XC potential correction       :         382.53297358 Ha       10409.25182804 eV
  | Free-atom electrostatic energy:       -3254.41312629 Ha      -88557.08690122 eV
  | Hartree energy correction     :         -24.41100776 Ha        -664.25731807 eV
  | van der Waals energy corr.    :           0.00000000 Ha           0.00000000 eV
  | Entropy correction            :          -0.00001037 Ha          -0.00028209 eV
  | ---------------------------
  | Total energy                  :       -7830.11786070 Ha     -213068.34778783 eV
  | Total energy, T -> 0          :       -7830.11787107 Ha     -213068.34806993 eV  <-- do not rely on this value for anything but (periodic) metals
  | Electronic free energy        :       -7830.11788143 Ha     -213068.34835202 eV

  Derived energy quantities:
  | Kinetic energy                :        7988.47074658 Ha      217377.34905222 eV
  | Electrostatic energy          :      -15524.34529391 Ha     -422438.92890331 eV
  | Energy correction for multipole
  | error in Hartree potential    :          -0.00013713 Ha          -0.00373145 eV
  | Sum of eigenvalues per atom                           :      -31562.37186496 eV
  | Total energy (T->0) per atom                          :      -53267.08701748 eV  <-- do not rely on this value for anything but (periodic) metals
  | Electronic free energy per atom                       :      -53267.08708801 eV

  Self-consistency convergence accuracy:
  | Change of charge/spin density : 0.3926E+01 0.2702E-09
  | Change of sum of eigenvalues  : -.5198E+03 eV
  | Change of total energy        : 0.7495E+02 eV

  End self-consistency iteration #     2       :  max(cpu_time)    wall_clock(cpu1)
  | Time for this iteration                    :        0.292 s           0.292 s
  | Charge density update                      :        0.128 s           0.128 s
  | Density mixing                             :        0.002 s           0.002 s
  | Hartree multipole update                   :        0.002 s           0.003 s
  | Hartree multipole summation                :        0.033 s           0.033 s
  | Integration                                :        0.116 s           0.115 s
  | Solution of K.-S. eqns.                    :        0.009 s           0.010 s
  | Total energy evaluation                    :        0.000 s           0.001 s
------------------------------------------------------------

------------------------------------------------------------
          Begin self-consistency iteration #    3

  Date     :  20220124, Time     :  173924.331
------------------------------------------------------------
  Evaluating new KS density.
  Integration grid: deviation in total charge (<rho> - N_e) =   9.509093E-07
  | <rho_up-rho_dn> = N_up-N_dn =      0.0000; <|rho_up-rho_dn|> =      0.0000
  Pulay mixing of updated and previous charge densities.

  Evaluating partitioned Hartree potential by multipole expansion.
  | Analytical far-field extrapolation by fixed multipoles:
  | Hartree multipole sum: apparent total charge =  -0.157812E-05
  Summing up the Hartree potential.
  Time summed over all CPUs for potential: real work        0.251 s, elapsed        0.257 s
  | RMS charge density error from multipole expansion :   0.732223E-03

  Integrating Hamiltonian matrix: batch-based integration.
  Time summed over all CPUs for integration: real work        0.894 s, elapsed        0.933 s

  Updating Kohn-Sham eigenvalues, eigenvectors, occupation numbers, and Fermi level.
  Solving generalized eigenproblem
  Solving real symmetric generalised eigenvalue problem by standard ScaLAPACK.
  Using Cholesky factor for transformation
  Using 1-stage real ELPA solver
  Solving real symmetric generalised eigenvalue problem by standard ScaLAPACK.
  Using Cholesky factor for transformation
  Using 1-stage real ELPA solver
  Determining occupation numbers for Kohn-Sham eigenstates.
  | Chemical potential (Fermi level) in eV                 : -.49573260E+01
  | Error in electron count due to remaining E_F inaccuracy: -.13500312E-11
  | Maximum occupation number of highest empty state:  0.00E+00

  Current spin moment of the entire structure :
  | N = N_up - N_down :    0.00
  | S                 :    0.00
  | J                 :    1.00

  Highest occupied state (VBM) at     -5.28101542 eV
  | Occupation number:      1.00000000
  | Spin channel:        2

  Lowest unoccupied state (CBM) at    -4.95684943 eV
  | Occupation number:      0.25017289
  | Spin channel:        1

  Overall HOMO-LUMO gap:      0.32416599 eV.

  Total energy components:
  | Sum of eigenvalues            :       -4641.33924303 Ha     -126297.26673708 eV
  | XC energy correction          :        -294.01617985 Ha       -8000.58731919 eV
  | XC potential correction       :         382.23325067 Ha       10401.09595267 eV
  | Free-atom electrostatic energy:       -3254.41312629 Ha      -88557.08690122 eV
  | Hartree energy correction     :         -19.84814580 Ha        -540.09552695 eV
  | van der Waals energy corr.    :           0.00000000 Ha           0.00000000 eV
  | Entropy correction            :          -0.00001652 Ha          -0.00044940 eV
  | ---------------------------
  | Total energy                  :       -7827.38344430 Ha     -212993.94053177 eV
  | Total energy, T -> 0          :       -7827.38346081 Ha     -212993.94098118 eV  <-- do not rely on this value for anything but (periodic) metals
  | Electronic free energy        :       -7827.38347733 Ha     -212993.94143058 eV

  Derived energy quantities:
  | Kinetic energy                :        7989.39007138 Ha      217402.36515281 eV
  | Electrostatic energy          :      -15522.75733583 Ha     -422395.71836538 eV
  | Energy correction for multipole
  | error in Hartree potential    :           0.00049685 Ha           0.01352005 eV
  | Sum of eigenvalues per atom                           :      -31574.31668427 eV
  | Total energy (T->0) per atom                          :      -53248.48524529 eV  <-- do not rely on this value for anything but (periodic) metals
  | Electronic free energy per atom                       :      -53248.48535765 eV

  Self-consistency convergence accuracy:
  | Change of charge/spin density : 0.2789E+01 0.5538E-08
  | Change of sum of eigenvalues  : -.4778E+02 eV
  | Change of total energy        : 0.7441E+02 eV

  End self-consistency iteration #     3       :  max(cpu_time)    wall_clock(cpu1)
  | Time for this iteration                    :        0.296 s           0.296 s
  | Charge density update                      :        0.129 s           0.129 s
  | Density mixing                             :        0.003 s           0.004 s
  | Hartree multipole update                   :        0.002 s           0.002 s
  | Hartree multipole summation                :        0.033 s           0.033 s
  | Integration                                :        0.117 s           0.117 s
  | Solution of K.-S. eqns.                    :        0.009 s           0.010 s
  | Total energy evaluation                    :        0.000 s           0.001 s
------------------------------------------------------------

------------------------------------------------------------
          Begin self-consistency iteration #    4

  Date     :  20220124, Time     :  173924.629
------------------------------------------------------------
  Evaluating new KS density.
  Integration grid: deviation in total charge (<rho> - N_e) =   8.989098E-07
  | <rho_up-rho_dn> = N_up-N_dn =      0.0000; <|rho_up-rho_dn|> =      0.0000
  Pulay mixing of updated and previous charge densities.

  Evaluating partitioned Hartree potential by multipole expansion.
  | Analytical far-field extrapolation by fixed multipoles:
  | Hartree multipole sum: apparent total charge =  -0.171524E-05
  Summing up the Hartree potential.
  Time summed over all CPUs for potential: real work        0.251 s, elapsed        0.258 s
  | RMS charge density error from multipole expansion :   0.724879E-03

  Integrating Hamiltonian matrix: batch-based integration.
  Time summed over all CPUs for integration: real work        0.882 s, elapsed        0.922 s

  Updating Kohn-Sham eigenvalues, eigenvectors, occupation numbers, and Fermi level.
  Solving generalized eigenproblem
  Solving real symmetric generalised eigenvalue problem by standard ScaLAPACK.
  Using Cholesky factor for transformation
  Using 1-stage real ELPA solver
  Solving real symmetric generalised eigenvalue problem by standard ScaLAPACK.
  Using Cholesky factor for transformation
  Using 1-stage real ELPA solver
  Determining occupation numbers for Kohn-Sham eigenstates.
  | Chemical potential (Fermi level) in eV                 : -.48676682E+01
  | Error in electron count due to remaining E_F inaccuracy: -.31178615E-10
  | Maximum occupation number of highest empty state:  0.00E+00

  Current spin moment of the entire structure :
  | N = N_up - N_down :    0.00
  | S                 :    0.00
  | J                 :    1.00

  Highest occupied state (VBM) at     -5.15307611 eV
  | Occupation number:      1.00000000
  | Spin channel:        2

  Lowest unoccupied state (CBM) at    -4.86719253 eV
  | Occupation number:      0.25055373
  | Spin channel:        1

  Overall HOMO-LUMO gap:      0.28588358 eV.

  Total energy components:
  | Sum of eigenvalues            :       -4640.40107865 Ha     -126271.73798529 eV
  | XC energy correction          :        -294.04402730 Ha       -8001.34508681 eV
  | XC potential correction       :         382.27020051 Ha       10402.10140894 eV
  | Free-atom electrostatic energy:       -3254.41312629 Ha      -88557.08690122 eV
  | Hartree energy correction     :         -20.75028102 Ha        -564.64387526 eV
  | van der Waals energy corr.    :           0.00000000 Ha           0.00000000 eV
  | Entropy correction            :          -0.00001652 Ha          -0.00044940 eV
  | ---------------------------
  | Total energy                  :       -7827.33831274 Ha     -212992.71243964 eV
  | Total energy, T -> 0          :       -7827.33832926 Ha     -212992.71288904 eV  <-- do not rely on this value for anything but (periodic) metals
  | Electronic free energy        :       -7827.33834577 Ha     -212992.71333845 eV

  Derived energy quantities:
  | Kinetic energy                :        7989.35616906 Ha      217401.44262382 eV
  | Electrostatic energy          :      -15522.65045451 Ha     -422392.80997665 eV
  | Energy correction for multipole
  | error in Hartree potential    :           0.00036215 Ha           0.00985447 eV
  | Sum of eigenvalues per atom                           :      -31567.93449632 eV
  | Total energy (T->0) per atom                          :      -53248.17822226 eV  <-- do not rely on this value for anything but (periodic) metals
  | Electronic free energy per atom                       :      -53248.17833461 eV

  Self-consistency convergence accuracy:
  | Change of charge/spin density : 0.1079E+01 0.8243E-07
  | Change of sum of eigenvalues  : 0.2553E+02 eV
  | Change of total energy        : 0.1228E+01 eV

  End self-consistency iteration #     4       :  max(cpu_time)    wall_clock(cpu1)
  | Time for this iteration                    :        0.299 s           0.298 s
  | Charge density update                      :        0.133 s           0.131 s
  | Density mixing                             :        0.005 s           0.005 s
  | Hartree multipole update                   :        0.003 s           0.003 s
  | Hartree multipole summation                :        0.033 s           0.033 s
  | Integration                                :        0.116 s           0.115 s
  | Solution of K.-S. eqns.                    :        0.009 s           0.009 s
  | Total energy evaluation                    :        0.000 s           0.001 s
------------------------------------------------------------

------------------------------------------------------------
          Begin self-consistency iteration #    5

  Date     :  20220124, Time     :  173924.929
------------------------------------------------------------
  Evaluating new KS density.
  Integration grid: deviation in total charge (<rho> - N_e) =   8.523753E-07
  | <rho_up-rho_dn> = N_up-N_dn =      0.0000; <|rho_up-rho_dn|> =      0.0000
  Pulay mixing of updated and previous charge densities.

  Evaluating partitioned Hartree potential by multipole expansion.
  | Analytical far-field extrapolation by fixed multipoles:
  | Hartree multipole sum: apparent total charge =  -0.190539E-05
  Summing up the Hartree potential.
  Time summed over all CPUs for potential: real work        0.252 s, elapsed        0.259 s
  | RMS charge density error from multipole expansion :   0.803907E-03

  Integrating Hamiltonian matrix: batch-based integration.
  Time summed over all CPUs for integration: real work        0.882 s, elapsed        0.920 s

  Updating Kohn-Sham eigenvalues, eigenvectors, occupation numbers, and Fermi level.
  Solving generalized eigenproblem
  Solving real symmetric generalised eigenvalue problem by standard ScaLAPACK.
  Using Cholesky factor for transformation
  Using 1-stage real ELPA solver
  Solving real symmetric generalised eigenvalue problem by standard ScaLAPACK.
  Using Cholesky factor for transformation
  Using 1-stage real ELPA solver
  Determining occupation numbers for Kohn-Sham eigenstates.
  | Chemical potential (Fermi level) in eV                 : -.47407043E+01
  | Error in electron count due to remaining E_F inaccuracy: -.18474111E-12
  | Maximum occupation number of highest empty state:  0.00E+00

  Current spin moment of the entire structure :
  | N = N_up - N_down :    0.00
  | S                 :    0.00
  | J                 :    1.00

  Highest occupied state (VBM) at     -4.74431799 eV
  | Occupation number:      0.99999984
  | Spin channel:        2

  Lowest unoccupied state (CBM) at    -4.74022791 eV
  | Occupation number:      0.25026700
  | Spin channel:        1

  Overall HOMO-LUMO gap:      0.00409007 eV.

  Total energy components:
  | Sum of eigenvalues            :       -4639.81011761 Ha     -126255.65711726 eV
  | XC energy correction          :        -294.03688547 Ha       -8001.15074765 eV
  | XC potential correction       :         382.26106369 Ha       10401.85278339 eV
  | Free-atom electrostatic energy:       -3254.41312629 Ha      -88557.08690122 eV
  | Hartree energy correction     :         -21.27490762 Ha        -578.91969154 eV
  | van der Waals energy corr.    :           0.00000000 Ha           0.00000000 eV
  | Entropy correction            :          -0.00001652 Ha          -0.00044940 eV
  | ---------------------------
  | Total energy                  :       -7827.27397330 Ha     -212990.96167428 eV
[...]
     58       1.00000          -0.176471           -4.80203
     59       1.00000          -0.175440           -4.77396
     60       1.00000          -0.175440           -4.77396
     61       1.00000          -0.160085           -4.35613
     62       1.00000          -0.160080           -4.35599
     63       0.00000          -0.110735           -3.01326
     64       0.00000          -0.084308           -2.29414
     65       0.00000          -0.084307           -2.29410
     66       0.00000          -0.079451           -2.16197
     67       0.00000          -0.079451           -2.16197
     68       0.00000          -0.066863           -1.81943
     69       0.00000          -0.046820           -1.27404
     70       0.00000          -0.046820           -1.27404
     71       0.00000          -0.015525           -0.42245

  Spin-down eigenvalues:

  State    Occupation    Eigenvalue [Ha]    Eigenvalue [eV]
      1       1.00000        -668.660640       -18195.18176
      2       1.00000        -281.422793        -7657.90383
      3       1.00000        -281.414803        -7657.68641
      4       1.00000        -281.407939        -7657.49964
      5       1.00000         -91.011851        -2476.55846
      6       1.00000         -81.130005        -2207.65975
      7       1.00000         -81.130005        -2207.65975
      8       1.00000         -81.128368        -2207.61521
      9       1.00000         -32.905314         -895.39915
     10       1.00000         -32.904857         -895.38670
     11       1.00000         -32.903717         -895.35571
     12       1.00000         -28.162087         -766.32938
     13       1.00000         -28.158769         -766.23909
     14       1.00000         -28.157508         -766.20478
     15       1.00000         -28.157508         -766.20478
     16       1.00000         -28.154503         -766.12300
     17       1.00000         -28.154503         -766.12300
     18       1.00000         -28.153704         -766.10127
     19       1.00000         -28.148868         -765.96967
     20       1.00000         -28.148868         -765.96967
     21       1.00000         -14.811564         -403.04316
     22       1.00000         -11.606622         -315.83225
     23       1.00000         -11.606622         -315.83225
     24       1.00000         -11.605099         -315.79081
     25       1.00000          -6.353046         -172.87517
     26       1.00000          -6.353046         -172.87517
     27       1.00000          -6.351700         -172.83855
     28       1.00000          -6.351700         -172.83855
     29       1.00000          -6.351414         -172.83076
     30       1.00000          -3.596562          -97.86744
     31       1.00000          -3.581802          -97.46580
     32       1.00000          -3.575898          -97.30514
     33       1.00000          -2.274765          -61.89951
     34       1.00000          -2.248383          -61.18161
     35       1.00000          -2.238477          -60.91206
     36       1.00000          -2.238477          -60.91206
     37       1.00000          -2.231304          -60.71687
     38       1.00000          -2.231304          -60.71687
     39       1.00000          -2.228866          -60.65052
     40       1.00000          -2.228866          -60.65052
     41       1.00000          -2.223089          -60.49332
     42       1.00000          -1.944548          -52.91385
     43       1.00000          -1.145665          -31.17513
     44       1.00000          -1.143932          -31.12796
     45       1.00000          -1.143932          -31.12796
     46       1.00000          -0.250224           -6.80895
     47       1.00000          -0.228342           -6.21350
     48       1.00000          -0.228342           -6.21350
     49       1.00000          -0.204602           -5.56752
     50       1.00000          -0.189972           -5.16941
     51       1.00000          -0.189972           -5.16941
     52       1.00000          -0.177945           -4.84213
     53       1.00000          -0.170286           -4.63373
     54       1.00000          -0.160877           -4.37768
     55       1.00000          -0.160866           -4.37738
     56       1.00000          -0.150159           -4.08604
     57       1.00000          -0.150128           -4.08520
     58       1.00000          -0.146696           -3.99181
     59       1.00000          -0.146696           -3.99181
     60       0.00000          -0.134981           -3.67301
     61       0.00000          -0.134956           -3.67234
     62       0.00000          -0.120953           -3.29131
     63       0.00000          -0.098365           -2.67666
     64       0.00000          -0.086644           -2.35771
     65       0.00000          -0.086638           -2.35755
     66       0.00000          -0.075287           -2.04867
     67       0.00000          -0.075287           -2.04867
     68       0.00000          -0.064708           -1.76078
     69       0.00000          -0.047185           -1.28397
     70       0.00000          -0.047185           -1.28397
     71       0.00000          -0.013179           -0.35861

  Current spin moment of the entire structure :
  | N = N_up - N_down :    3.00
  | S                 :    1.50
  | J                 :    4.00

  Highest occupied state (VBM) at     -3.99181184 eV
  | Occupation number:      1.00000000
  | Spin channel:        2

  Lowest unoccupied state (CBM) at    -3.67301180 eV
  | Occupation number:      0.00000000
  | Spin channel:        2

  Overall HOMO-LUMO gap:      0.31880005 eV.

  Self-consistency cycle converged.

  End self-consistency iteration #    17       :  max(cpu_time)    wall_clock(cpu1)
  | Time for this iteration                    :        0.878 s           0.880 s
  | Charge density & force component update    :        0.649 s           0.647 s
  | Density mixing                             :        0.006 s           0.006 s
  | Hartree multipole update                   :        0.003 s           0.002 s
  | Hartree multipole summation                :        0.095 s           0.095 s
  | Integration                                :        0.114 s           0.114 s
  | Solution of K.-S. eqns.                    :        0.009 s           0.009 s
  | Total energy evaluation                    :        0.001 s           0.001 s
------------------------------------------------------------
  Obtaining max. number of non-zero basis functions in each batch .
  Evaluating KS electron density on previously omitted grid points.
  Evaluating non-empirical van der Waals correction (Tkatchenko/Scheffler 2009).
  Performing Hirshfeld analysis of fragment charges and moments.
  ----------------------------------------------------------------------
  | Atom     1: Co
  |   Hirshfeld charge        :      0.04132380
  |   Free atom volume        :    100.22352929
  |   Hirshfeld volume        :     85.27355195
  |   Hirshfeld spin moment   :      2.21785844
  |   Hirshfeld dipole vector :     -0.00000000       0.00000001      -0.26129186
  |   Hirshfeld dipole moment :      0.26129186
  |   Hirshfeld second moments:      0.35268405      -0.00000000       0.00000001
  |                                 -0.00000000       0.35268405       0.00000003
  |                                  0.00000001       0.00000003       0.22768669
  ----------------------------------------------------------------------
  | Atom     2: Co
  |   Hirshfeld charge        :     -0.20672391
  |   Free atom volume        :    100.22352929
  |   Hirshfeld volume        :     91.06525317
  |   Hirshfeld spin moment   :      1.06908261
  |   Hirshfeld dipole vector :     -0.00000000      -0.00000004      -0.03540856
  |   Hirshfeld dipole moment :      0.03540856
  |   Hirshfeld second moments:      0.19679470       0.00000000      -0.00000000
  |                                  0.00000000       0.19679470      -0.00000000
  |                                 -0.00000000      -0.00000000      -0.01823705
  ----------------------------------------------------------------------
  | Atom     3: Zr
  |   Hirshfeld charge        :      0.32896021
  |   Free atom volume        :    209.33552215
  |   Hirshfeld volume        :    171.44522187
  |   Hirshfeld spin moment   :     -0.25858972
  |   Hirshfeld dipole vector :     -0.00000002      -0.00000001      -0.08474649
  |   Hirshfeld dipole moment :      0.08474649
  |   Hirshfeld second moments:      1.07499182       0.00000000       0.00000000
  |                                  0.00000000       1.07499182      -0.00000002
  |                                  0.00000000      -0.00000002      -0.02588321
  ----------------------------------------------------------------------
  | Atom     4: Co
  |   Hirshfeld charge        :     -0.16357200
  |   Free atom volume        :    100.22352929
  |   Hirshfeld volume        :     86.59448090
  |   Hirshfeld spin moment   :     -0.02830707
  |   Hirshfeld dipole vector :      0.00000001       0.00000001       0.36622554
  |   Hirshfeld dipole moment :      0.36622554
  |   Hirshfeld second moments:      0.21678030       0.00000000       0.00000000
  |                                  0.00000000       0.21678030      -0.00000000
  |                                  0.00000000      -0.00000000       0.28769367
  ----------------------------------------------------------------------


  Total energy components:
  | Sum of eigenvalues            :       -4640.89716857 Ha     -126285.23727880 eV
  | XC energy correction          :        -293.83740564 Ha       -7995.72262548 eV
  | XC potential correction       :         381.99497826 Ha       10394.61223056 eV
  | Free-atom electrostatic energy:       -3255.50735113 Ha      -88586.86227415 eV
  | Hartree energy correction     :         -19.02464138 Ha        -517.68683159 eV
  | van der Waals energy corr.    :          -0.00255316 Ha          -0.06947493 eV
  | Entropy correction            :           0.00000000 Ha           0.00000000 eV
  | ---------------------------
  | Total energy                  :       -7827.27414162 Ha     -212990.96625441 eV
  | Total energy, T -> 0          :       -7827.27414162 Ha     -212990.96625441 eV  <-- do not rely on this value for anything but (periodic) metals
  | Electronic free energy        :       -7827.27414162 Ha     -212990.96625441 eV

  Derived energy quantities:
  | Kinetic energy                :        7984.52976578 Ha      217270.10950828 eV
  | Electrostatic energy          :      -15517.96394859 Ha     -422265.28366227 eV
  | Energy correction for multipole
  | error in Hartree potential    :           0.00581205 Ha           0.15815396 eV
  | Sum of eigenvalues per atom                           :      -31571.30931970 eV
  | Total energy (T->0) per atom                          :      -53247.74156360 eV  <-- do not rely on this value for anything but (periodic) metals
  | Electronic free energy per atom                       :      -53247.74156360 eV

  atomic forces [eV/Ang]:
  -----------------------
  atom #    1
   Hellmann-Feynman              : 0.111658E-06 -.118615E-05 0.512085E+01
   Multipole                     : 0.494068E-08 -.618668E-07 0.204267E-01
   Pulay + GGA                   : -.808204E-07 0.131033E-05 -.514922E+01
   Van der Waals                 : -.267719E-10 -.797686E-10 0.768694E-02
   ----------------------------------------------------------------
   Total forces(   1)            : 0.357520E-07 0.622335E-07 -.250514E-03
  atom #    2
   Hellmann-Feynman              : -.827239E-06 -.130973E-05 -.300723E+02
   Multipole                     : 0.317449E-07 0.322749E-07 0.169606E+00
   Pulay + GGA                   : 0.788463E-06 0.121521E-05 0.299068E+02
   Van der Waals                 : -.140486E-10 -.176342E-09 -.450813E-02
   ----------------------------------------------------------------
   Total forces(   2)            : -.704520E-08 -.624180E-07 -.475713E-03
  atom #    3
   Hellmann-Feynman              : -.123239E-05 -.197790E-05 -.102190E+02
   Multipole                     : 0.587342E-08 0.454364E-07 0.224029E+00
   Pulay + GGA                   : 0.125671E-05 0.192725E-05 0.999952E+01
   Van der Waals                 : 0.214987E-10 0.104355E-09 -.502332E-02
   ----------------------------------------------------------------
   Total forces(   3)            : 0.302138E-07 -.510584E-08 -.434622E-03
  atom #    4
   Hellmann-Feynman              : 0.469192E-06 0.158425E-05 0.448162E+02
   Multipole                     : 0.239755E-07 -.196936E-07 -.572994E+00
   Pulay + GGA                   : -.482649E-06 -.154939E-05 -.442445E+02
   Van der Waals                 : 0.193218E-10 0.151756E-09 0.184451E-02
   ----------------------------------------------------------------
   Total forces(   4)            : 0.105379E-07 0.153146E-07 0.549709E-03
  Timings for VdW correction (Tkatchenko-Scheffler 2009 or later):
  | CPU time:        0.015 s, Wall clock time:        0.016 s.
  Removing unitary transformations (pure translations, rotations) from forces on atoms.
  Atomic forces before filtering:
  | Net force on center of mass :  0.694585E-07 0.100244E-07 -.611139E-03 eV/A
  | Net torque on center of mass:  0.902739E-07 -.394072E-07 -.180398E-14 eV
  Atomic forces after filtering:
  | Net force on center of mass :  -.398769E-23 0.000000E+00 0.000000E+00 eV/A
  | Net torque on center of mass:  0.225087E-22 0.562718E-23 -.670812E-30 eV

  Energy and forces in a compact form:
  | Total energy uncorrected      :         -0.212990966254405E+06 eV
  | Total energy corrected        :         -0.212990966254405E+06 eV  <-- do not rely on this value for anything but (periodic) metals
  | Electronic free energy        :         -0.212990966254405E+06 eV
  Total atomic forces (unitary forces cleaned) [eV/Ang]:
  |   1          0.455406333755114E-08          0.476674921187004E-07         -0.977289684135182E-04
  |   2         -0.151314972676773E-07         -0.694806298731486E-07         -0.322928129773298E-03
  |   3          0.173220236411220E-07         -0.550990249260557E-08         -0.281837050334831E-03
  |   4         -0.674458971099583E-08          0.273230402470537E-07          0.702494148521647E-03

  ------------------------------------ 
  Start decomposition of the XC Energy 
  ------------------------------------ 
  Hartree-Fock part   :          0.000000000 Ha              0.000000000 eV
  ------------------------------------ 
  X Energy            :       -288.153238671 Ha          -7841.048572401 eV
  C Energy GGA        :         -5.684166974 Ha           -154.674053083 eV
  Total XC Energy     :       -293.837405645 Ha          -7995.722625484 eV
  LDA X and C from self-consistent density 
  X Energy LDA        :       -272.071151888 Ha          -7403.432725370 eV
  C Energy LDA        :        -10.666626198 Ha           -290.253666793 eV
  ------------------------------------ 
  End decomposition of the XC Energy 
  ------------------------------------ 
  Relaxation / MD: End force evaluation.       :  max(cpu_time)    wall_clock(cpu1)
  | Time for this force evaluation             :        5.738 s           5.817 s

------------------------------------------------------------
  Geometry optimization: Attempting to predict improved coordinates.

  Removing unitary transformations (pure translations, rotations) from forces on atoms.
  Atomic forces before filtering:
  | Net force on center of mass :  -.398769E-23 0.000000E+00 0.000000E+00 eV/A
  | Net torque on center of mass:  0.225087E-22 0.562718E-23 -.670812E-30 eV
  Atomic forces after filtering:
  | Net force on center of mass :  -.265846E-23 0.000000E+00 0.000000E+00 eV/A
  | Net torque on center of mass:  0.450175E-22 0.281359E-23 0.167703E-30 eV
  Net remaining forces (excluding translations, rotations) in present geometry:
  Maximum force component is  0.702494E-03 eV/A.
  Present geometry is converged.

------------------------------------------------------------
  Final atomic structure:
                         x [A]             y [A]             z [A]
            atom         0.00000001        0.00000006       -0.16985270  Co
            atom        -0.00000000       -0.00000008        1.95214133  Co
            atom        -0.00000002       -0.00000002        4.12362648  Zr
            atom         0.00000001        0.00000004        6.09408489  Co
------------------------------------------------------------

------------------------------------------------------------------------------
  Final output of selected total energy values:

  The following output summarizes some interesting total energy values
  at the end of a run (AFTER all relaxation, molecular dynamics, etc.).

  | Total energy of the DFT / Hartree-Fock s.c.f. calculation      :        -212990.966254405 eV
  | Final zero-broadening corrected energy (caution - metals only) :        -212990.966254405 eV
  | For reference only, the value of 1 Hartree used in FHI-aims is :             27.211384500 eV

  Before relying on these values, please be sure to understand exactly which
  total energy value is referred to by a given number. Different objects may
  all carry the same name 'total energy'. Definitions:

  Total energy of the DFT / Hartree-Fock s.c.f. calculation:
  | Note that this energy does not include ANY quantities calculated after the
  | s.c.f. cycle, in particular not ANY RPA, MP2, etc. many-body perturbation terms.

  Final zero-broadening corrected energy:
  | For metallic systems only, a broadening of the occupation numbers at the Fermi
  | level can be extrapolated back to zero broadening by an electron-gas inspired
  | formula. For all systems that are not real metals, this value can be
  | meaningless and should be avoided.

------------------------------------------------------------------------------

   One or more s.c.f. cycles took more than 50 s.c.f. iterations.
   It might be worth adjusting your convergence settings. For example,
   metals need a larger broadening and a smaller "charge_mix_param" value than semiconductors.

------------------------------------------------------------
          Leaving FHI-aims.
          Date     :  20220124, Time     :  174116.112

          Computational steps:
          | Number of self-consistency cycles          :          353
          | Number of relaxation steps                 :            8

          Detailed time accounting                     :  max(cpu_time)    wall_clock(cpu1)
          | Total time                                 :      112.854 s         113.589 s
          | Preparation time                           :        0.880 s           0.883 s
          | Grid partitioning                          :        0.246 s           0.223 s
          | Preloading free-atom quantities on grid    :        0.175 s           0.173 s
          | Free-atom superposition energy             :        0.104 s           0.106 s
          | Total time for integrations                :       40.948 s          40.944 s
          | Total time for solution of K.-S. equations :        3.230 s           3.283 s
          | Total time for EV reorthonormalization     :        0.027 s           0.027 s
          | Total time for density & force components  :       50.851 s          50.385 s
          | Total time for mixing                      :        2.096 s           2.081 s
          | Total time for Hartree multipole update    :        0.897 s           0.945 s
          | Total time for Hartree multipole sum       :       12.564 s          12.570 s
          | Total time for total energy evaluation     :        0.074 s           0.211 s
          | Total time for scaled ZORA corrections     :        0.000 s           0.000 s
          | Total time for vdW correction              :        0.135 s           0.134 s

          Have a nice day.
------------------------------------------------------------
