  MPI-parallelism will be employed.
------------------------------------------------------------
          Invoking FHI-aims ...
          Version 052014
          Git rev. (modified): 096c982 Merge branch master of fhiaims:/pub/localo[...]
          Compiled on 2016/12/16 at 15:22:01 on host login02.hpc.iitd.ac.in.

          When using FHI-aims, please cite the following reference:

          Volker Blum, Ralf Gehrke, Felix Hanke, Paula Havu,
          Ville Havu, Xinguo Ren, Karsten Reuter, and Matthias Scheffler,
          'Ab Initio Molecular Simulations with Numeric Atom-Centered Orbitals: FHI-aims',
          Computer Physics Communications 180, 2175-2196 (2009)

          For any questions about FHI-aims, please visit the aimsclub website
          with its forums and wiki. Contributions to both the forums and the
          wiki are warmly encouraged - they are for you, and everyone is welcome there.

------------------------------------------------------------

  Date     :  20220120, Time     :  153521.846
  Time zero on CPU 1             :   0.129870000000000E-01  s.
  Internal wall clock time zero  :           411924921.846  s.

  Using        8 parallel tasks.
  Task        0 on host csky010 reporting.
  Task        1 on host csky010 reporting.
  Task        2 on host csky010 reporting.
  Task        3 on host csky010 reporting.
  Task        4 on host csky010 reporting.
  Task        5 on host csky010 reporting.
  Task        6 on host csky010 reporting.
  Task        7 on host csky010 reporting.

  Performing system and environment tests:
  | Environment variable OMP_NUM_THREADS correctly set to 1.
  | Stacksize not measured: no C compiler
  | Checking for scalapack...
  | Testing pdtran()...
  | All pdtran() tests passed.

  Obtaining array dimensions for all initial allocations:
  
  -----------------------------------------------------------------------
  Parsing control.in (first pass over file, find array dimensions only).
  The contents of control.in will be repeated verbatim below
  unless switched off by setting 'verbatim_writeout .false.' .
  in the first line of control.in .
  -----------------------------------------------------------------------
  
    xc               pbe
    spin             collinear
    default_initial_moment hund
    relativistic     atomic_zora scalar 1e-9
    occupation_type  gaussian 0.001
    charge        0
    vdw_correction_hirshfeld
    KS_method        scalapack_fast
    mixer            pulay
    charge_mix_param  0.4
    spin_mix_param    0.6
    sc_accuracy_rho  1E-4
    sc_accuracy_eev  1E-5
    sc_accuracy_etot 1E-5
    sc_iter_limit    100
    empty_states     10
  ################################################################################
  #
  #  FHI-aims code project
  # Volker Blum, Fritz Haber Institute Berlin, 2009
  #
  #  Suggested "tight" defaults for H atom (to be pasted into control.in file)
  #
  ################################################################################
    species        H
  #     global species definitions
      nucleus             1
      mass                1.00794
  #
      l_hartree           6
  #
      cut_pot             4.0  2.0  1.0
      basis_dep_cutoff    1e-4
  #
      radial_base         24 7.0
      radial_multiplier   2
      angular_grids       specified
        division   0.1930   50
        division   0.3175  110
        division   0.4293  194
        division   0.5066  302
        division   0.5626  434
  #      division   0.5922  590
  #      division   0.6227  974
  #      division   0.6868 1202
  #      outer_grid  770
        outer_grid  434
  ################################################################################
  #
  #  Definition of "minimal" basis
  #
  ################################################################################
  #     valence basis states
      valence      1  s   1.
  #     ion occupancy
      ion_occ      1  s   0.5
  ################################################################################
  #
  #  Suggested additional basis functions. For production calculations,
  #  uncomment them one after another (the most important basis functions are
  #  listed first).
  #
  #  Basis constructed for dimers: 0.5 A, 0.7 A, 1.0 A, 1.5 A, 2.5 A
  #
  ################################################################################
  #  "First tier" - improvements: -1014.90 meV to -62.69 meV
       hydro 2 s 2.1
       hydro 2 p 3.5
  #  "Second tier" - improvements: -12.89 meV to -1.83 meV
       hydro 1 s 0.85
       hydro 2 p 3.7
       hydro 2 s 1.2
       hydro 3 d 7
  #  "Third tier" - improvements: -0.25 meV to -0.12 meV
  #     hydro 4 f 11.2
  #     hydro 3 p 4.8
  #     hydro 4 d 9
  #     hydro 3 s 3.2
  ################################################################################
  #
  # For methods that use the localized form of the "resolution of identity" for
  # the two-electron Coulomb operator (RI_method LVL), particularly Hartree-Fock and
  # hybrid density functional calculations, the highest accuracy can be obtained by
  # uncommenting the line beginning with "for_aux"  below, thus adding an extra g radial
  # function to the construction of the product basis set for the expansion.
  # See Ref. New J. Phys. 17, 093020 (2015) for more information, particularly Figs. 1 and 6.
  #
  ################################################################################
  #
  # for_aux hydro 5 g 6.0
  
  -----------------------------------------------------------------------
  Completed first pass over input file control.in .
  -----------------------------------------------------------------------
  
  
  -----------------------------------------------------------------------
  Parsing geometry.in (first pass over file, find array dimensions only).
  The contents of geometry.in will be repeated verbatim below
  unless switched off by setting 'verbatim_writeout .false.' .
  in the first line of geometry.in .
  -----------------------------------------------------------------------
  
  atom 0 0 0 H
  atom 0 0 0.67 H
  
  -----------------------------------------------------------------------
  Completed first pass over input file geometry.in .
  -----------------------------------------------------------------------
  

  Basic array size parameters:
  | Number of species                 :        1
  | Number of atoms                   :        2
  | Max. basis fn. angular momentum   :        2
  | Max. atomic/ionic basis occupied n:        1
  | Max. number of basis fn. types    :        2
  | Max. radial fns per species/type  :        6
  | Max. logarithmic grid size        :     1131
  | Max. radial integration grid size :       49
  | Max. angular integration grid size:      434
  | Max. angular grid division number :        8
  | Radial grid for Hartree potential :     1131
  | Number of spin channels           :        2

------------------------------------------------------------
          Reading file control.in.
------------------------------------------------------------
  XC: Using PBE gradient-corrected functionals.
  Spin treatment: Spin density functional theory - collinear spins.
  Initial spin moment per atom set according to Hund's rules.
  Scalar relativistic treatment of kinetic energy: on-site free-atom approximation to ZORA.
  Occupation type: Gaussian broadening, width =   0.100000E-02 eV.
  Charge =   0.000000E+00: Neutral system requested explicitly.
  Using non-empirical van der Waals correction (Hirshfeld partitioning):
  Kohn-Sham eigenvalues and eigenfunctions calculated by the ELPA eigensolver library.
  Using pulay charge density mixing.
  Charge density mixing - mixing parameter:     0.4000
  Spin density mixing - mixing parameter:     0.6000
  Convergence accuracy of self-consistent charge density: 0.1000E-03
  Convergence accuracy of sum of eigenvalues: 0.1000E-04
  Convergence accuracy of total energy: 0.1000E-04
  Maximum number of s.-c. iterations  :   100
  Number of empty states per atom:       10
 
  Reading configuration options for species H                   .
  | Found nuclear charge :   1.0000
  | Found atomic mass :    1.00794000000000      amu
  | Found l_max for Hartree potential  :   6
  | Found cutoff potl. onset [A], width [A], scale factor :    4.00000    2.00000    1.00000
  | Threshold for basis-dependent cutoff potential is   0.100000E-03
  | Found data for basic radial integration grid :    24 points, outermost radius =    7.000 A
  | Found multiplier for basic radial grid :   2
  | Found angular grid specification: user-specified.
  | Specified grid contains     6 separate shells.
  | Check grid settings after all constraints further below.
  | Found free-atom valence shell :  1 s   1.000
  | No ionic wave fns used. Skipping ion_occ.
  | Found hydrogenic basis function :  2 s   2.100
  | Found hydrogenic basis function :  2 p   3.500
  | Found hydrogenic basis function :  1 s   0.850
  | Found hydrogenic basis function :  2 p   3.700
  | Found hydrogenic basis function :  2 s   1.200
  | Found hydrogenic basis function :  3 d   7.000
  Species H                   : Missing cutoff potential type.
  Defaulting to exp(1/x)/(1-x)^2 type cutoff potential.
  Species H : No 'logarithmic' tag. Using default grid for free atom:
  | Default logarithmic grid data [bohr] : 0.1000E-03 0.1000E+03 0.1012E+01
  Species H : On-site basis accuracy parameter (for Gram-Schmidt orthonormalisation) not specified.
  Using default value basis_acc =  0.1000000E-03.
  Species H                   : Using default innermost maximum threshold i_radial=  2 for radial functions.
  Species H                   : Default cutoff onset for free atom density etc. : 0.40000000E+01 AA.
  Species H                   : Basic radial grid will be enhanced according to radial_multiplier =   2, to contain    49 grid points.
 
  Finished reading input file 'control.in'. Consistency checks are next.
 
  Target number of points in a grid batch is not set. Defaulting to  100
  Method for grid partitioning is not set. Defaulting to parallel hash+maxmin partitioning.
  Batch size limit is not set. Defaulting to    200
  By default, will store active basis functions for each batch.
  If in need of memory, prune_basis_once .false. can be used to disable this option.
  communication_type for Hartree potential was not specified.
  Defaulting to calc_hartree .
  Pulay mixer: Number of relevant iterations not set.
  Defaulting to    8 iterations.
  Pulay mixer: Number of initial linear mixing iterations not set.
  Defaulting to    0 iterations.
  Work space size for distributed Hartree potential not set.
  Defaulting to   0.200000E+03 MB.
  Algorithm-dependent basis array size parameters:
  | n_max_pulay                         :        8
  Calculation of forces was not defined in control.in. No forces will be calculated.
  Geometry relaxation not requested: no relaxation will be performed.
  No accuracy limit for integral partition fn. given. Defaulting to 0.1000E-14.
  No threshold value for u(r) in integrations given. Defaulting to 0.1000E-05.
  No accuracy for occupation numbers given. Defaulting to 0.1000E-07.
  No threshold value for occupation numbers given. Defaulting to 0.0000E+00.
  No accuracy for fermi level given. Defaulting to 0.1000E-19.
  Maximum # of iterations to find E_F not set. Defaulting to  200.
  Will not use alltoall communication since running on < 1024 CPUs.
  Threshold for basis singularities not set.
  Default threshold for basis singularities: 0.1000E-04
  partition_type (choice of integration weights) for integrals was not specified.
  | Using a version of the partition function of Stratmann and coworkers ('stratmann_smoother').
  | At each grid point, the set of atoms used to build the partition table is smoothly restricted to
  | only those atoms whose free-atom density would be non-zero at that grid point.
  Partitioning for Hartree potential was not defined. Using partition_type for integrals.
  | Adjusted default value of keyword multip_moments_threshold to:       0.10000000E-11
  | This value may affect high angular momentum components of the Hartree potential in periodic systems.
  No q(lm)/r^(l+1) cutoff set for long-range Hartree potential.
  | Using default value of  0.100000E-09 .
  | Verify using the multipole_threshold keyword.
  Defaulting to new monopole extrapolation.
  Density update method: automatic selection selected.
------------------------------------------------------------


------------------------------------------------------------
          Reading geometry description geometry.in.
------------------------------------------------------------
  Input structure read successfully.
  The structure contains        2 atoms,  and a total of          2.000 electrons.

  Input geometry:
  | No unit cell requested.
  | Atomic structure:
  |       Atom                x [A]            y [A]            z [A]
  |    1: Species H              0.000000         0.000000         0.000000
  |    2: Species H              0.000000         0.000000         0.670000
  |

  | The smallest distance between any two atoms is         0.67000000 AA.
  |
  | The first atom of this pair is atom number                      1 .
  | The second atom of this pair is atom number                     2 .

  Initial moments and charges:
  |  Atom   Moment         Charge        Species
  |     1  (Hund's rule)   0.000000E+00   H
  |     2  (Hund's rule)   0.000000E+00   H

  Structure-dependent array size parameters: 
  | Number of distinct atom types in initial rho :        1
  | Maximum number of distinct radial functions  :        7
  | Maximum number of basis functions            :       30
  | Number of Kohn-Sham states (occupied + empty):       11
------------------------------------------------------------

------------------------------------------------------------
          Preparing all fixed parts of the calculation.
------------------------------------------------------------
  Determining machine precision:
    2.225073858507201E-308
  Setting up grids for atomic and cluster calculations.

  Creating wave function, potential, and density for free atoms.

  Species: H

  List of occupied orbitals and eigenvalues:
    n    l              occ      energy [Ha]    energy [eV]
    1    0           1.0000        -0.238386        -6.4868

  Spin-polarized or charged system:
  Charge density initialized according to selected moments and charges.

  Creating spin-polarized density from free atoms.

  Species: H
  Charge:   0.000000
  applying Hund's rules ...

  List of occupied orbitals and eigenvalues:
    n    l      energy [Ha]    energy [eV]    occupation
  Spin-up
    1    0        -0.278991        -7.5917     1.00000000
  Spin-down
    1    0         0.090850         2.4721     0.00000000

  Creating fixed part of basis set: Ionic, confined, hydrogenic.
 
  H                    hydrogenic:
 
  List of hydrogenic basis orbitals: 
    n    l      effective z      eigenvalue [eV]  inner max. [A]     outer max. [A]     outer radius [A]   
    2    0         2.100000       -14.9965           0.193243           1.317208           5.373006
    2    1         3.500000       -41.6672           0.602369           0.602369           4.056063
    1    0         0.850000        -9.8292           0.624871           0.624871           5.373006
    2    1         3.700000       -46.5653           0.573622           0.573622           3.910002
    2    0         1.200000        -4.5995           0.334980           2.228188           5.505995
    3    2         7.000000       -74.0753           0.680699           0.680699           3.769201
 

  Adding cutoff potential to free-atom effective potential.
  Creating atomic-like basis functions for current effective potential.

  Species H                   :

  List of atomic basis orbitals and eigenvalues:
    n    l      energy [Ha]    energy [eV]    outer radius [A]
    1    0        -0.238386        -6.4868       5.373006

  Assembling full basis from fixed parts.
  | Species H :   atomic orbital   1 s accepted.
  | Species H :    hydro orbital   2 s accepted.
  | Species H :    hydro orbital   1 s accepted.
  | Species H :    hydro orbital   2 s accepted.
  | Species H :    hydro orbital   2 p accepted.
  | Species H :    hydro orbital   2 p accepted.
  | Species H :    hydro orbital   3 d accepted.
 
  Basis size parameters after reduction:
  | Total number of radial functions:        7
  | Total number of basis functions :       30
 
  Testing on-site integration grid accuracy.
  |  Species  Function  <phi|h_atom|phi> (log., in eV)  <phi|h_atom|phi> (rad., in eV)
           1        1                 -6.4870767962                 -6.4871688290
           1        2                 13.5032046589                 13.5028982997
           1        3                 32.8195184817                 32.8119941656
           1        4                 33.8513856511                 33.7670005767 ***
           1        5                 28.8544614965                 28.8544615203
           1        6                 59.6326952547                 59.6327656460
           1        7                 60.2719308513                 60.2719305949
 * Note: Onsite integrals marked "***" above are less accurate than
 * onsite_accuracy_threshold =    0.03000 eV. Usually, this is harmless.
 * When in doubt, tighten the "radial" and/or "radial_multiplier" flags to check.

  Preparing densities etc. for the partition functions (integrals / Hartree potential).

  Preparations completed.
  max(cpu_time)          :      0.082 s.
  Wall clock time (cpu1) :      0.083 s.
------------------------------------------------------------

------------------------------------------------------------
          Begin self-consistency loop: Initialization.

          Date     :  20220120, Time     :  153522.017
------------------------------------------------------------

  Initializing index lists of integration centers etc. from given atomic structure:
  | Number of centers in hartree potential         :         2
  | Number of centers in hartree multipole         :         2
  | Number of centers in electron density summation:         2
  | Number of centers in basis integrals           :         2
  | Number of centers in integrals                 :         2
  Using modified Scalapack Eigenvalue solver (ELPA)
  * Using 8 tasks for Scalapack Eigenvalue solver.
  Detailed listing of tasks and assigned k-points:
  (for non-periodic systems, the "k-point" denotes an internal label only)
   Task     0 k-point     1 on csky010
   Task     1 k-point     1 on csky010
   Task     2 k-point     1 on csky010
   Task     3 k-point     1 on csky010
   Task     4 k-point     1 on csky010
   Task     5 k-point     1 on csky010
   Task     6 k-point     1 on csky010
   Task     7 k-point     1 on csky010
  Tasks:     8 split into      4 X      2 BLACS grid
  Calculating blocksize based on n_basis =           30 max_nprow =            4 max_npcol =            2
  Scalapack blocksize set to:            4
  Required Scalapack workspace - INTEGER:            1 REAL:             1
  Partitioning the integration grid into batches with parallel hashing+maxmin method.
  | Number of batches:      440
  | Maximal batch size:     197
  | Minimal batch size:      49
  | Average batch size:      65.682
  | Standard deviation of batch sizes:      19.151

  Integration load balanced across     8 MPI tasks.
  Work distribution over tasks is as follows:
  Task     0 has       3580 integration points.
  Task     1 has       3586 integration points.
  Task     2 has       3679 integration points.
  Task     3 has       3584 integration points.
  Task     4 has       3643 integration points.
  Task     5 has       3625 integration points.
  Task     6 has       3615 integration points.
  Task     7 has       3588 integration points.
  Initializing partition tables, free-atom densities, potentials, etc. across the integration grid (initialize_grid_storage).
  | initialize_grid_storage: Actual outermost partition radius vs. multipole_radius_free
  | (-- VB: in principle, multipole_radius_free should be larger, hence this output)
  | Species        1: outer_partition_radius =              6.000000000000000 AA, multipole_radius_free =              6.071692442739658 AA.
  | Original list of interatomic distances with           2 x          2 entries is created.
  | Net number of integration points:    28900
  | of which are non-zero points    :    26418
  Obtaining max. number of non-zero basis functions in each batch (get_n_compute_maxes).
  | Maximal number of non-zero basis functions:       30 in task     0
  | Maximal number of non-zero basis functions:       30 in task     1
  | Maximal number of non-zero basis functions:       30 in task     2
  | Maximal number of non-zero basis functions:       30 in task     3
  | Maximal number of non-zero basis functions:       30 in task     4
  | Maximal number of non-zero basis functions:       30 in task     5
  | Maximal number of non-zero basis functions:       30 in task     6
  | Maximal number of non-zero basis functions:       30 in task     7
  Selecting the method for density update.
  Loop over occupied states selected for charge density update.
  Integrating Hamiltonian matrix: batch-based integration.
  Time summed over all CPUs for integration: real work        0.097 s, elapsed        0.121 s
  Integrating overlap matrix.
  Time summed over all CPUs for integration: real work        0.025 s, elapsed        0.028 s
  Deallocating overlap matrix.

  Updating Kohn-Sham eigenvalues, eigenvectors, occupation numbers, and Fermi level.
  Solving generalized eigenproblem
  Solving real symmetric generalised eigenvalue problem by standard ScaLAPACK.
  Transforming overlap matrix with ScaLAPACK and checking for singularities.
  : Overlap matrix is nonsingular, using Cholesky decomposition
  | Lowest eigenvalue:  0.159464E-03
  Factoring overlap matrix with Cholesky decomposition
  Using Cholesky factor for transformation
  Using 1-stage real ELPA solver
  Solving real symmetric generalised eigenvalue problem by standard ScaLAPACK.
  Using Cholesky factor for transformation
  Using 1-stage real ELPA solver
  Determining occupation numbers for Kohn-Sham eigenstates.
  | Chemical potential (Fermi level) in eV                 : -.67952614E+00
  | Error in electron count due to remaining E_F inaccuracy: 0.00000000E+00
  | Maximum occupation number of highest empty state:  0.00E+00

  Writing Kohn-Sham eigenvalues.

  Spin-up eigenvalues:

  State    Occupation    Eigenvalue [Ha]    Eigenvalue [eV]
      1       1.00000          -0.624574          -16.99551
      2       1.00000          -0.040698           -1.10745
      3       0.00000           0.006141            0.16709
      4       0.00000           0.114351            3.11164
      5       0.00000           0.208093            5.66250
      6       0.00000           0.208093            5.66250
      7       0.00000           0.290526            7.90560
      8       0.00000           0.480590           13.07753
      9       0.00000           0.678337           18.45848
     10       0.00000           0.685707           18.65904
     11       0.00000           0.685707           18.65904

  Spin-down eigenvalues:

  State    Occupation    Eigenvalue [Ha]    Eigenvalue [eV]
      1       0.00000           0.099230            2.70019
      2       0.00000           0.115729            3.14914
      3       0.00000           0.504808           13.73653
      4       0.00000           0.533754           14.52419
      5       0.00000           1.160379           31.57552
      6       0.00000           1.160379           31.57552
      7       0.00000           1.201739           32.70099
      8       0.00000           1.522622           41.43266
      9       0.00000           1.522622           41.43266
     10       0.00000           1.575918           42.88291
     11       0.00000           1.693810           46.09091

  Current spin moment of the entire structure :
  | N = N_up - N_down :    2.00
  | S                 :    1.00
  | J                 :    3.00

  Highest occupied state (VBM) at     -1.10744969 eV
  | Occupation number:      1.00000000
  | Spin channel:        1

  Lowest unoccupied state (CBM) at     0.16709319 eV
  | Occupation number:      0.00000000
  | Spin channel:        1

  Overall HOMO-LUMO gap:      1.27454287 eV.
  Calculating total energy contributions from superposition of free atom densities.

  Total energy components:
  | Sum of eigenvalues            :          -0.66527161 Ha         -18.10296145 eV
  | XC energy correction          :          -0.69356655 Ha         -18.87290615 eV
  | XC potential correction       :           0.89509733 Ha          24.35683764 eV
  | Free-atom electrostatic energy:          -0.28197566 Ha          -7.67294798 eV
  | Hartree energy correction     :           0.00000000 Ha           0.00000000 eV
  | van der Waals energy corr.    :           0.00000000 Ha           0.00000000 eV
  | Entropy correction            :           0.00000000 Ha           0.00000000 eV
  | ---------------------------
  | Total energy                  :          -0.74571648 Ha         -20.29197794 eV
  | Total energy, T -> 0          :          -0.74571648 Ha         -20.29197794 eV  <-- do not rely on this value for anything but (periodic) metals
  | Electronic free energy        :          -0.74571648 Ha         -20.29197794 eV

  Derived energy quantities:
  | Kinetic energy                :           1.22415146 Ha          33.31085615 eV
  | Electrostatic energy          :          -1.27630139 Ha         -34.72992794 eV
  | Energy correction for multipole
  | error in Hartree potential    :           0.00000000 Ha           0.00000000 eV
  | Sum of eigenvalues per atom                           :          -9.05148073 eV
  | Total energy (T->0) per atom                          :         -10.14598897 eV  <-- do not rely on this value for anything but (periodic) metals
  | Electronic free energy per atom                       :         -10.14598897 eV
  Initialize hartree_potential_storage
  Max. number of atoms included in rho_multipole:            2

  End scf initialization - timings             :  max(cpu_time)    wall_clock(cpu1)
  | Time for scf. initialization               :        0.049 s           0.049 s
  | Boundary condition initialization          :        0.000 s           0.000 s
  | Integration                                :        0.019 s           0.019 s
  | Solution of K.-S. eqns.                    :        0.009 s           0.009 s
  | Grid partitioning                          :        0.007 s           0.007 s
  | Preloading free-atom quantities on grid    :        0.004 s           0.004 s
  | Free-atom superposition energy             :        0.003 s           0.003 s
  | Total energy evaluation                    :        0.000 s           0.000 s
------------------------------------------------------------

------------------------------------------------------------
          Begin self-consistency iteration #    1

  Date     :  20220120, Time     :  153522.066
------------------------------------------------------------
  Evaluating new KS density.
  Integration grid: deviation in total charge (<rho> - N_e) =   2.227544E-07
  | <rho_up-rho_dn> = N_up-N_dn =      2.0000; <|rho_up-rho_dn|> =      2.1223
  Pulay mixing of updated and previous charge densities.

  Evaluating partitioned Hartree potential by multipole expansion.
  | Analytical far-field extrapolation by fixed multipoles:
  | Hartree multipole sum: apparent total charge =  -0.125159E-04
  Summing up the Hartree potential.
  Time summed over all CPUs for potential: real work        0.035 s, elapsed        0.036 s
  | RMS charge density error from multipole expansion :   0.803328E-03

  Integrating Hamiltonian matrix: batch-based integration.
  Time summed over all CPUs for integration: real work        0.069 s, elapsed        0.077 s

  Updating Kohn-Sham eigenvalues, eigenvectors, occupation numbers, and Fermi level.
  Solving generalized eigenproblem
  Solving real symmetric generalised eigenvalue problem by standard ScaLAPACK.
  Using Cholesky factor for transformation
  Using 1-stage real ELPA solver
  Solving real symmetric generalised eigenvalue problem by standard ScaLAPACK.
  Using Cholesky factor for transformation
  Using 1-stage real ELPA solver
  Determining occupation numbers for Kohn-Sham eigenstates.
  | Chemical potential (Fermi level) in eV                 : -.61246420E+01
  | Error in electron count due to remaining E_F inaccuracy: 0.00000000E+00
  | Maximum occupation number of highest empty state:  0.00E+00

  Writing Kohn-Sham eigenvalues.

  Spin-up eigenvalues:

  State    Occupation    Eigenvalue [Ha]    Eigenvalue [eV]
      1       1.00000          -0.515743          -14.03409
      2       0.00000           0.061734            1.67988
      3       0.00000           0.065756            1.78931
      4       0.00000           0.173475            4.72048
      5       0.00000           0.237695            6.46802
      6       0.00000           0.237695            6.46802
      7       0.00000           0.354139            9.63662
      8       0.00000           0.561422           15.27706
      9       0.00000           0.761393           20.71857
     10       0.00000           0.761393           20.71857
     11       0.00000           0.825139           22.45316

  Spin-down eigenvalues:

  State    Occupation    Eigenvalue [Ha]    Eigenvalue [eV]
      1       1.00000          -0.294842           -8.02307
      2       0.00000           0.085134            2.31662
      3       0.00000           0.090562            2.46433
      4       0.00000           0.248041            6.74955
      5       0.00000           0.348215            9.47542
      6       0.00000           0.348215            9.47542
      7       0.00000           0.417515           11.36117
      8       0.00000           0.688055           18.72292
      9       0.00000           0.851660           23.17485
     10       0.00000           0.851660           23.17485
     11       0.00000           0.886297           24.11737

  Current spin moment of the entire structure :
  | N = N_up - N_down :    0.00
  | S                 :    0.00
  | J                 :    1.00

  Highest occupied state (VBM) at     -8.02307012 eV
  | Occupation number:      1.00000000
  | Spin channel:        2

  Lowest unoccupied state (CBM) at     1.67987977 eV
  | Occupation number:      0.00000000
  | Spin channel:        1

  Overall HOMO-LUMO gap:      9.70294989 eV.

  Total energy components:
  | Sum of eigenvalues            :          -0.81058575 Ha         -22.05716063 eV
  | XC energy correction          :          -0.48689707 Ha         -13.24914341 eV
  | XC potential correction       :           0.62710025 Ha          17.06426594 eV
  | Free-atom electrostatic energy:          -0.28197566 Ha          -7.67294798 eV
  | Hartree energy correction     :           0.02422896 Ha           0.65930351 eV
  | van der Waals energy corr.    :           0.00000000 Ha           0.00000000 eV
  | Entropy correction            :           0.00000000 Ha           0.00000000 eV
  | ---------------------------
  | Total energy                  :          -0.92812928 Ha         -25.25568257 eV
  | Total energy, T -> 0          :          -0.92812928 Ha         -25.25568257 eV  <-- do not rely on this value for anything but (periodic) metals
  | Electronic free energy        :          -0.92812928 Ha         -25.25568257 eV

  Derived energy quantities:
  | Kinetic energy                :           0.88482201 Ha          24.07723179 eV
  | Electrostatic energy          :          -1.32605421 Ha         -36.08377096 eV
  | Energy correction for multipole
  | error in Hartree potential    :          -0.00015825 Ha          -0.00430610 eV
  | Sum of eigenvalues per atom                           :         -11.02858032 eV
  | Total energy (T->0) per atom                          :         -12.62784129 eV  <-- do not rely on this value for anything but (periodic) metals
  | Electronic free energy per atom                       :         -12.62784129 eV

  Self-consistency convergence accuracy:
  | Change of charge/spin density : 0.6038E-01 0.6038E-01
  | Change of sum of eigenvalues  : -.3954E+01 eV
  | Change of total energy        : -.4964E+01 eV

  End self-consistency iteration #     1       :  max(cpu_time)    wall_clock(cpu1)
  | Time for this iteration                    :        0.029 s           0.028 s
  | Charge density update                      :        0.007 s           0.007 s
  | Density mixing                             :        0.001 s           0.000 s
  | Hartree multipole update                   :        0.001 s           0.002 s
  | Hartree multipole summation                :        0.005 s           0.005 s
  | Integration                                :        0.010 s           0.010 s
  | Solution of K.-S. eqns.                    :        0.002 s           0.002 s
  | Total energy evaluation                    :        0.000 s           0.000 s
------------------------------------------------------------

------------------------------------------------------------
          Begin self-consistency iteration #    2

  Date     :  20220120, Time     :  153522.100
------------------------------------------------------------
  Evaluating new KS density.
  Integration grid: deviation in total charge (<rho> - N_e) =   1.336526E-07
  | <rho_up-rho_dn> = N_up-N_dn =     -2.0000; <|rho_up-rho_dn|> =      2.0000
  Pulay mixing of updated and previous charge densities.

  Evaluating partitioned Hartree potential by multipole expansion.
  | Analytical far-field extrapolation by fixed multipoles:
  | Hartree multipole sum: apparent total charge =  -0.123572E-04
  Summing up the Hartree potential.
  Time summed over all CPUs for potential: real work        0.033 s, elapsed        0.034 s
  | RMS charge density error from multipole expansion :   0.789168E-03

  Integrating Hamiltonian matrix: batch-based integration.
  Time summed over all CPUs for integration: real work        0.071 s, elapsed        0.076 s

  Updating Kohn-Sham eigenvalues, eigenvectors, occupation numbers, and Fermi level.
  Solving generalized eigenproblem
  Solving real symmetric generalised eigenvalue problem by standard ScaLAPACK.
  Using Cholesky factor for transformation
  Using 1-stage real ELPA solver
  Solving real symmetric generalised eigenvalue problem by standard ScaLAPACK.
  Using Cholesky factor for transformation
  Using 1-stage real ELPA solver
  Determining occupation numbers for Kohn-Sham eigenstates.
  | Chemical potential (Fermi level) in eV                 : -.82312397E+01
  | Error in electron count due to remaining E_F inaccuracy: 0.00000000E+00
  | Maximum occupation number of highest empty state:  0.00E+00

  Current spin moment of the entire structure :
  | N = N_up - N_down :    0.00
  | S                 :    0.00
  | J                 :    1.00

  Highest occupied state (VBM) at     -9.42344390 eV
  | Occupation number:      1.00000000
  | Spin channel:        2

  Lowest unoccupied state (CBM) at     1.24358528 eV
  | Occupation number:      0.00000000
  | Spin channel:        1

  Overall HOMO-LUMO gap:     10.66702918 eV.

  Total energy components:
  | Sum of eigenvalues            :          -0.95590255 Ha         -26.01143185 eV
  | XC energy correction          :          -0.57943256 Ha         -15.76716205 eV
  | XC potential correction       :           0.74838792 Ha          20.36467151 eV
  | Free-atom electrostatic energy:          -0.28197566 Ha          -7.67294798 eV
  | Hartree energy correction     :           0.02101634 Ha           0.57188373 eV
  | van der Waals energy corr.    :           0.00000000 Ha           0.00000000 eV
  | Entropy correction            :           0.00000000 Ha           0.00000000 eV
  | ---------------------------
  | Total energy                  :          -1.04790650 Ha         -28.51498665 eV
  | Total energy, T -> 0          :          -1.04790650 Ha         -28.51498665 eV  <-- do not rely on this value for anything but (periodic) metals
  | Electronic free energy        :          -1.04790650 Ha         -28.51498665 eV

  Derived energy quantities:
  | Kinetic energy                :           0.86144081 Ha          23.44099700 eV
  | Electrostatic energy          :          -1.32991475 Ha         -36.18882159 eV
  | Energy correction for multipole
  | error in Hartree potential    :          -0.00015520 Ha          -0.00422331 eV
  | Sum of eigenvalues per atom                           :         -13.00571592 eV
  | Total energy (T->0) per atom                          :         -14.25749332 eV  <-- do not rely on this value for anything but (periodic) metals
  | Electronic free energy per atom                       :         -14.25749332 eV

  Self-consistency convergence accuracy:
  | Change of charge/spin density : 0.1216E+00 0.2880E+00
  | Change of sum of eigenvalues  : -.3954E+01 eV
  | Change of total energy        : -.3259E+01 eV

  End self-consistency iteration #     2       :  max(cpu_time)    wall_clock(cpu1)
  | Time for this iteration                    :        0.028 s           0.027 s
  | Charge density update                      :        0.009 s           0.007 s
  | Density mixing                             :        0.001 s           0.001 s
  | Hartree multipole update                   :        0.001 s           0.002 s
  | Hartree multipole summation                :        0.005 s           0.004 s
  | Integration                                :        0.010 s           0.010 s
  | Solution of K.-S. eqns.                    :        0.001 s           0.001 s
  | Total energy evaluation                    :        0.000 s           0.000 s
------------------------------------------------------------

------------------------------------------------------------
          Begin self-consistency iteration #    3

  Date     :  20220120, Time     :  153522.128
------------------------------------------------------------
  Evaluating new KS density.
  Integration grid: deviation in total charge (<rho> - N_e) =   1.320041E-07
  | <rho_up-rho_dn> = N_up-N_dn =     -1.9630; <|rho_up-rho_dn|> =      1.9630
  Pulay mixing of updated and previous charge densities.

  Evaluating partitioned Hartree potential by multipole expansion.
  | Analytical far-field extrapolation by fixed multipoles:
  | Hartree multipole sum: apparent total charge =  -0.123979E-04
  Summing up the Hartree potential.
  Time summed over all CPUs for potential: real work        0.034 s, elapsed        0.035 s
  | RMS charge density error from multipole expansion :   0.766283E-03

  Integrating Hamiltonian matrix: batch-based integration.
  Time summed over all CPUs for integration: real work        0.068 s, elapsed        0.072 s

  Updating Kohn-Sham eigenvalues, eigenvectors, occupation numbers, and Fermi level.
  Solving generalized eigenproblem
  Solving real symmetric generalised eigenvalue problem by standard ScaLAPACK.
  Using Cholesky factor for transformation
  Using 1-stage real ELPA solver
  Solving real symmetric generalised eigenvalue problem by standard ScaLAPACK.
  Using Cholesky factor for transformation
  Using 1-stage real ELPA solver
  Determining occupation numbers for Kohn-Sham eigenstates.
  | Chemical potential (Fermi level) in eV                 : -.76083636E+01
  | Error in electron count due to remaining E_F inaccuracy: 0.00000000E+00
  | Maximum occupation number of highest empty state:  0.00E+00

  Current spin moment of the entire structure :
  | N = N_up - N_down :    0.00
  | S                 :    0.00
  | J                 :    1.00

  Highest occupied state (VBM) at     -9.07434565 eV
  | Occupation number:      1.00000000
  | Spin channel:        2

  Lowest unoccupied state (CBM) at     1.24685221 eV
  | Occupation number:      0.00000000
  | Spin channel:        1

  Overall HOMO-LUMO gap:     10.32119786 eV.

  Total energy components:
  | Sum of eigenvalues            :          -0.91402279 Ha         -24.87182564 eV
  | XC energy correction          :          -0.55428342 Ha         -15.08281929 eV
  | XC potential correction       :           0.71522926 Ha          19.46237833 eV
  | Free-atom electrostatic energy:          -0.28197566 Ha          -7.67294798 eV
  | Hartree energy correction     :           0.02464928 Ha           0.67074095 eV
  | van der Waals energy corr.    :           0.00000000 Ha           0.00000000 eV
  | Entropy correction            :           0.00000000 Ha           0.00000000 eV
  | ---------------------------
  | Total energy                  :          -1.01040333 Ha         -27.49447363 eV
  | Total energy, T -> 0          :          -1.01040333 Ha         -27.49447363 eV  <-- do not rely on this value for anything but (periodic) metals
  | Electronic free energy        :          -1.01040333 Ha         -27.49447363 eV

  Derived energy quantities:
  | Kinetic energy                :           0.86540711 Ha          23.54892571 eV
  | Electrostatic energy          :          -1.32152703 Ha         -35.96058005 eV
  | Energy correction for multipole
  | error in Hartree potential    :          -0.00014871 Ha          -0.00404668 eV
  | Sum of eigenvalues per atom                           :         -12.43591282 eV
  | Total energy (T->0) per atom                          :         -13.74723681 eV  <-- do not rely on this value for anything but (periodic) metals
  | Electronic free energy per atom                       :         -13.74723681 eV

  Self-consistency convergence accuracy:
  | Change of charge/spin density : 0.1735E+00 0.2732E+00
  | Change of sum of eigenvalues  : 0.1140E+01 eV
  | Change of total energy        : 0.1021E+01 eV

  End self-consistency iteration #     3       :  max(cpu_time)    wall_clock(cpu1)
  | Time for this iteration                    :        0.026 s           0.026 s
  | Charge density update                      :        0.007 s           0.007 s
  | Density mixing                             :        0.001 s           0.001 s
  | Hartree multipole update                   :        0.001 s           0.001 s
  | Hartree multipole summation                :        0.005 s           0.005 s
  | Integration                                :        0.009 s           0.009 s
  | Solution of K.-S. eqns.                    :        0.002 s           0.002 s
  | Total energy evaluation                    :        0.000 s           0.001 s
------------------------------------------------------------

------------------------------------------------------------
          Begin self-consistency iteration #    4

  Date     :  20220120, Time     :  153522.157
------------------------------------------------------------
  Evaluating new KS density.
  Integration grid: deviation in total charge (<rho> - N_e) =   1.320701E-07
  | <rho_up-rho_dn> = N_up-N_dn =     -1.9636; <|rho_up-rho_dn|> =      1.9636
  Pulay mixing of updated and previous charge densities.

  Evaluating partitioned Hartree potential by multipole expansion.
  | Analytical far-field extrapolation by fixed multipoles:
  | Hartree multipole sum: apparent total charge =  -0.121862E-04
  Summing up the Hartree potential.
  Time summed over all CPUs for potential: real work        0.034 s, elapsed        0.035 s
  | RMS charge density error from multipole expansion :   0.657249E-03

  Integrating Hamiltonian matrix: batch-based integration.
  Time summed over all CPUs for integration: real work        0.078 s, elapsed        0.093 s

  Updating Kohn-Sham eigenvalues, eigenvectors, occupation numbers, and Fermi level.
  Solving generalized eigenproblem
  Solving real symmetric generalised eigenvalue problem by standard ScaLAPACK.
  Using Cholesky factor for transformation
  Using 1-stage real ELPA solver
  Solving real symmetric generalised eigenvalue problem by standard ScaLAPACK.
  Using Cholesky factor for transformation
  Using 1-stage real ELPA solver
  Determining occupation numbers for Kohn-Sham eigenstates.
  | Chemical potential (Fermi level) in eV                 : -.73926034E+01
  | Error in electron count due to remaining E_F inaccuracy: 0.00000000E+00
  | Maximum occupation number of highest empty state:  0.00E+00

  Current spin moment of the entire structure :
  | N = N_up - N_down :    0.00
  | S                 :    0.00
  | J                 :    1.00

  Highest occupied state (VBM) at     -9.72814686 eV
  | Occupation number:      1.00000000
  | Spin channel:        2

  Lowest unoccupied state (CBM) at     0.70290630 eV
  | Occupation number:      0.00000000
  | Spin channel:        1

  Overall HOMO-LUMO gap:     10.43105316 eV.

  Total energy components:
  | Sum of eigenvalues            :          -0.91875800 Ha         -25.00067724 eV
  | XC energy correction          :          -0.54300397 Ha         -14.77588993 eV
  | XC potential correction       :           0.69987344 Ha          19.04452519 eV
  | Free-atom electrostatic energy:          -0.28197566 Ha          -7.67294798 eV
  | Hartree energy correction     :           0.03529807 Ha           0.96050935 eV
  | van der Waals energy corr.    :           0.00000000 Ha           0.00000000 eV
  | Entropy correction            :           0.00000000 Ha           0.00000000 eV
  | ---------------------------
  | Total energy                  :          -1.00856612 Ha         -27.44448062 eV
  | Total energy, T -> 0          :          -1.00856612 Ha         -27.44448062 eV  <-- do not rely on this value for anything but (periodic) metals
  | Electronic free energy        :          -1.00856612 Ha         -27.44448062 eV

  Derived energy quantities:
  | Kinetic energy                :           0.81339430 Ha          22.13358507 eV
  | Electrostatic energy          :          -1.27895645 Ha         -34.80217576 eV
  | Energy correction for multipole
  | error in Hartree potential    :          -0.00010413 Ha          -0.00283353 eV
  | Sum of eigenvalues per atom                           :         -12.50033862 eV
  | Total energy (T->0) per atom                          :         -13.72224031 eV  <-- do not rely on this value for anything but (periodic) metals
  | Electronic free energy per atom                       :         -13.72224031 eV

  Self-consistency convergence accuracy:
  | Change of charge/spin density : 0.1548E+00 0.2761E+00
  | Change of sum of eigenvalues  : -.1289E+00 eV
  | Change of total energy        : 0.4999E-01 eV

  End self-consistency iteration #     4       :  max(cpu_time)    wall_clock(cpu1)
  | Time for this iteration                    :        0.029 s           0.028 s
  | Charge density update                      :        0.007 s           0.006 s
  | Density mixing                             :        0.001 s           0.002 s
  | Hartree multipole update                   :        0.001 s           0.001 s
  | Hartree multipole summation                :        0.005 s           0.005 s
  | Integration                                :        0.012 s           0.012 s
  | Solution of K.-S. eqns.                    :        0.001 s           0.001 s
  | Total energy evaluation                    :        0.000 s           0.000 s
------------------------------------------------------------

------------------------------------------------------------
          Begin self-consistency iteration #    5

  Date     :  20220120, Time     :  153522.189
------------------------------------------------------------
  Evaluating new KS density.
  Integration grid: deviation in total charge (<rho> - N_e) =   1.274043E-07
  | <rho_up-rho_dn> = N_up-N_dn =     -1.8726; <|rho_up-rho_dn|> =      1.8726
  Pulay mixing of updated and previous charge densities.

  Evaluating partitioned Hartree potential by multipole expansion.
  | Analytical far-field extrapolation by fixed multipoles:
  | Hartree multipole sum: apparent total charge =  -0.109907E-04
  Summing up the Hartree potential.
  Time summed over all CPUs for potential: real work        0.033 s, elapsed        0.034 s
  | RMS charge density error from multipole expansion :   0.145304E-02

  Integrating Hamiltonian matrix: batch-based integration.
  Time summed over all CPUs for integration: real work        0.068 s, elapsed        0.071 s

  Updating Kohn-Sham eigenvalues, eigenvectors, occupation numbers, and Fermi level.
  Solving generalized eigenproblem
  Solving real symmetric generalised eigenvalue problem by standard ScaLAPACK.
  Using Cholesky factor for transformation
  Using 1-stage real ELPA solver
  Solving real symmetric generalised eigenvalue problem by standard ScaLAPACK.
  Using Cholesky factor for transformation
  Using 1-stage real ELPA solver
  Determining occupation numbers for Kohn-Sham eigenstates.
  | Chemical potential (Fermi level) in eV                 : -.84018741E+01
  | Error in electron count due to remaining E_F inaccuracy: 0.00000000E+00
  | Maximum occupation number of highest empty state:  0.00E+00

  Current spin moment of the entire structure :
  | N = N_up - N_down :    0.00
  | S                 :    0.00
  | J                 :    1.00

  Highest occupied state (VBM) at    -13.14792947 eV
  | Occupation number:      1.00000000
  | Spin channel:        2

  Lowest unoccupied state (CBM) at    -0.68114414 eV
  | Occupation number:      0.00000000
  | Spin channel:        1

  Overall HOMO-LUMO gap:     12.46678533 eV.

  Total energy components:
  | Sum of eigenvalues            :          -1.06929576 Ha         -29.09701811 eV
  | XC energy correction          :          -0.55537792 Ha         -15.11260214 eV
  | XC potential correction       :           0.71406142 Ha          19.43059995 eV
  | Free-atom electrostatic energy:          -0.28197566 Ha          -7.67294798 eV
  | Hartree energy correction     :           0.10087384 Ha           2.74491689 eV
  | van der Waals energy corr.    :           0.00000000 Ha           0.00000000 eV
  | Entropy correction            :           0.00000000 Ha           0.00000000 eV
  | ---------------------------
  | Total energy                  :          -1.09171407 Ha         -29.70705139 eV
  | Total energy, T -> 0          :          -1.09171407 Ha         -29.70705139 eV  <-- do not rely on this value for anything but (periodic) metals
  | Electronic free energy        :          -1.09171407 Ha         -29.70705139 eV

  Derived energy quantities:
  | Kinetic energy                :           0.35849787 Ha           9.75522330 eV
  | Electrostatic energy          :          -0.89483402 Ha         -24.34967254 eV
  | Energy correction for multipole
  | error in Hartree potential    :           0.00022310 Ha           0.00607099 eV
  | Sum of eigenvalues per atom                           :         -14.54850905 eV
  | Total energy (T->0) per atom                          :         -14.85352569 eV  <-- do not rely on this value for anything but (periodic) metals
  | Electronic free energy per atom                       :         -14.85352569 eV

  Self-consistency convergence accuracy:
  | Change of charge/spin density : 0.1535E+00 0.2681E+00
  | Change of sum of eigenvalues  : -.4096E+01 eV
  | Change of total energy        : -.2263E+01 eV

  End self-consistency iteration #     5       :  max(cpu_time)    wall_clock(cpu1)
  | Time for this iteration                    :        0.026 s           0.024 s
  | Charge density update                      :        0.007 s           0.005 s
  | Density mixing                             :        0.001 s           0.002 s
  | Hartree multipole update                   :        0.001 s           0.001 s
  | Hartree multipole summation                :        0.005 s           0.005 s
  | Integration                                :        0.009 s           0.009 s
  | Solution of K.-S. eqns.                    :        0.001 s           0.001 s
  | Total energy evaluation                    :        0.000 s           0.000 s
------------------------------------------------------------

------------------------------------------------------------
          Begin self-consistency iteration #    6

  Date     :  20220120, Time     :  153522.218
------------------------------------------------------------
  Evaluating new KS density.
  Integration grid: deviation in total charge (<rho> - N_e) =   9.368218E-08
  | <rho_up-rho_dn> = N_up-N_dn =     -1.2899; <|rho_up-rho_dn|> =      1.2964
  Pulay mixing of updated and previous charge densities.

  Evaluating partitioned Hartree potential by multipole expansion.
  | Analytical far-field extrapolation by fixed multipoles:
  | Hartree multipole sum: apparent total charge =  -0.942918E-05
  Summing up the Hartree potential.
  Time summed over all CPUs for potential: real work        0.033 s, elapsed        0.034 s
  | RMS charge density error from multipole expansion :   0.457488E-02

  Integrating Hamiltonian matrix: batch-based integration.
  Time summed over all CPUs for integration: real work        0.071 s, elapsed        0.075 s

  Updating Kohn-Sham eigenvalues, eigenvectors, occupation numbers, and Fermi level.
  Solving generalized eigenproblem
  Solving real symmetric generalised eigenvalue problem by standard ScaLAPACK.
  Using Cholesky factor for transformation
  Using 1-stage real ELPA solver
  Solving real symmetric generalised eigenvalue problem by standard ScaLAPACK.
  Using Cholesky factor for transformation
  Using 1-stage real ELPA solver
  Determining occupation numbers for Kohn-Sham eigenstates.
  | Chemical potential (Fermi level) in eV                 : -.15972815E+02
  | Error in electron count due to remaining E_F inaccuracy: 0.00000000E+00
  | Maximum occupation number of highest empty state:  0.00E+00

  Current spin moment of the entire structure :
  | N = N_up - N_down :    0.00
  | S                 :    0.00
  | J                 :    1.00

  Highest occupied state (VBM) at    -17.63213781 eV
  | Occupation number:      1.00000000
  | Spin channel:        2

  Lowest unoccupied state (CBM) at    -1.96466376 eV
  | Occupation number:      0.00000000
  | Spin channel:        1

  Overall HOMO-LUMO gap:     15.66747405 eV.

  Total energy components:
  | Sum of eigenvalues            :          -1.33295776 Ha         -36.27162600 eV
  | XC energy correction          :          -0.66841550 Ha         -18.18851126 eV
  | XC potential correction       :           0.85860066 Ha          23.36371277 eV
  | Free-atom electrostatic energy:          -0.28197566 Ha          -7.67294798 eV
  | Hartree energy correction     :           0.12354246 Ha           3.36176136 eV
  | van der Waals energy corr.    :           0.00000000 Ha           0.00000000 eV
  | Entropy correction            :           0.00000000 Ha           0.00000000 eV
  | ---------------------------
  | Total energy                  :          -1.30120579 Ha         -35.40761111 eV
  | Total energy, T -> 0          :          -1.30120579 Ha         -35.40761111 eV  <-- do not rely on this value for anything but (periodic) metals
  | Electronic free energy        :          -1.30120579 Ha         -35.40761111 eV

  Derived energy quantities:
  | Kinetic energy                :          -0.69449768 Ha         -18.89824344 eV
  | Electrostatic energy          :           0.06170739 Ha           1.67914358 eV
  | Energy correction for multipole
  | error in Hartree potential    :           0.00096719 Ha           0.02631858 eV
  | Sum of eigenvalues per atom                           :         -18.13581300 eV
  | Total energy (T->0) per atom                          :         -17.70380556 eV  <-- do not rely on this value for anything but (periodic) metals
  | Electronic free energy per atom                       :         -17.70380556 eV

  Self-consistency convergence accuracy:
  | Change of charge/spin density : 0.3213E+00 0.1700E+00
  | Change of sum of eigenvalues  : -.7175E+01 eV
  | Change of total energy        : -.5701E+01 eV

  End self-consistency iteration #     6       :  max(cpu_time)    wall_clock(cpu1)
  | Time for this iteration                    :        0.028 s           0.026 s
  | Charge density update                      :        0.009 s           0.006 s
  | Density mixing                             :        0.002 s           0.001 s
  | Hartree multipole update                   :        0.001 s           0.002 s
  | Hartree multipole summation                :        0.004 s           0.004 s
  | Integration                                :        0.010 s           0.010 s
  | Solution of K.-S. eqns.                    :        0.001 s           0.001 s
  | Total energy evaluation                    :        0.000 s           0.000 s
------------------------------------------------------------

------------------------------------------------------------
          Begin self-consistency iteration #    7

  Date     :  20220120, Time     :  153522.249
------------------------------------------------------------
  Evaluating new KS density.
  Integration grid: deviation in total charge (<rho> - N_e) =   3.643594E-08
  | <rho_up-rho_dn> = N_up-N_dn =     -0.3588; <|rho_up-rho_dn|> =      0.9220
  Pulay mixing of updated and previous charge densities.

  Evaluating partitioned Hartree potential by multipole expansion.
  | Analytical far-field extrapolation by fixed multipoles:
  | Hartree multipole sum: apparent total charge =  -0.934351E-05
  Summing up the Hartree potential.
  Time summed over all CPUs for potential: real work        0.033 s, elapsed        0.034 s
  | RMS charge density error from multipole expansion :   0.435737E-02

  Integrating Hamiltonian matrix: batch-based integration.
  Time summed over all CPUs for integration: real work        0.071 s, elapsed        0.075 s

  Updating Kohn-Sham eigenvalues, eigenvectors, occupation numbers, and Fermi level.
  Solving generalized eigenproblem
  Solving real symmetric generalised eigenvalue problem by standard ScaLAPACK.
  Using Cholesky factor for transformation
  Using 1-stage real ELPA solver
  Solving real symmetric generalised eigenvalue problem by standard ScaLAPACK.
  Using Cholesky factor for transformation
  Using 1-stage real ELPA solver
  Determining occupation numbers for Kohn-Sham eigenstates.
  | Chemical potential (Fermi level) in eV                 : -.15583776E+02
  | Error in electron count due to remaining E_F inaccuracy: 0.00000000E+00
  | Maximum occupation number of highest empty state:  0.00E+00

  Current spin moment of the entire structure :
  | N = N_up - N_down :    0.00
  | S                 :    0.00
  | J                 :    1.00

  Highest occupied state (VBM) at    -17.24047222 eV
  | Occupation number:      1.00000000
  | Spin channel:        2

  Lowest unoccupied state (CBM) at    -1.84162455 eV
  | Occupation number:      0.00000000
  | Spin channel:        1

  Overall HOMO-LUMO gap:     15.39884767 eV.

  Total energy components:
  | Sum of eigenvalues            :          -1.30358525 Ha         -35.47235935 eV
  | XC energy correction          :          -0.66265351 Ha         -18.03171957 eV
  | XC potential correction       :           0.85116921 Ha          23.16149258 eV
  | Free-atom electrostatic energy:          -0.28197566 Ha          -7.67294798 eV
  | Hartree energy correction     :           0.12146052 Ha           3.30510904 eV
  | van der Waals energy corr.    :           0.00000000 Ha           0.00000000 eV
  | Entropy correction            :           0.00000000 Ha           0.00000000 eV
  | ---------------------------
  | Total energy                  :          -1.27558468 Ha         -34.71042528 eV
  | Total energy, T -> 0          :          -1.27558468 Ha         -34.71042528 eV  <-- do not rely on this value for anything but (periodic) metals
  | Electronic free energy        :          -1.27558468 Ha         -34.71042528 eV

  Derived energy quantities:
  | Kinetic energy                :          -0.59790646 Ha         -16.26986249 eV
  | Electrostatic energy          :          -0.01502471 Ha          -0.40884322 eV
  | Energy correction for multipole
  | error in Hartree potential    :           0.00090700 Ha           0.02468062 eV
  | Sum of eigenvalues per atom                           :         -17.73617968 eV
  | Total energy (T->0) per atom                          :         -17.35521264 eV  <-- do not rely on this value for anything but (periodic) metals
  | Electronic free energy per atom                       :         -17.35521264 eV

  Self-consistency convergence accuracy:
  | Change of charge/spin density : 0.7031E+00 0.2425E+00
  | Change of sum of eigenvalues  : 0.7993E+00 eV
  | Change of total energy        : 0.6972E+00 eV

  End self-consistency iteration #     7       :  max(cpu_time)    wall_clock(cpu1)
  | Time for this iteration                    :        0.026 s           0.026 s
  | Charge density update                      :        0.006 s           0.006 s
  | Density mixing                             :        0.002 s           0.001 s
  | Hartree multipole update                   :        0.001 s           0.002 s
  | Hartree multipole summation                :        0.005 s           0.004 s
  | Integration                                :        0.010 s           0.010 s
  | Solution of K.-S. eqns.                    :        0.001 s           0.001 s
  | Total energy evaluation                    :        0.000 s           0.000 s
------------------------------------------------------------

------------------------------------------------------------
          Begin self-consistency iteration #    8

  Date     :  20220120, Time     :  153522.279
------------------------------------------------------------
  Evaluating new KS density.
  Integration grid: deviation in total charge (<rho> - N_e) =   3.798671E-08
  | <rho_up-rho_dn> = N_up-N_dn =     -0.3795; <|rho_up-rho_dn|> =      0.9224
  Pulay mixing of updated and previous charge densities.

  Evaluating partitioned Hartree potential by multipole expansion.
  | Analytical far-field extrapolation by fixed multipoles:
  | Hartree multipole sum: apparent total charge =  -0.123312E-04
  Summing up the Hartree potential.
  Time summed over all CPUs for potential: real work        0.033 s, elapsed        0.034 s
  | RMS charge density error from multipole expansion :   0.946134E-02

  Integrating Hamiltonian matrix: batch-based integration.
  Time summed over all CPUs for integration: real work        0.071 s, elapsed        0.076 s

  Updating Kohn-Sham eigenvalues, eigenvectors, occupation numbers, and Fermi level.
  Solving generalized eigenproblem
  Solving real symmetric generalised eigenvalue problem by standard ScaLAPACK.
  Using Cholesky factor for transformation
  Using 1-stage real ELPA solver
  Solving real symmetric generalised eigenvalue problem by standard ScaLAPACK.
  Using Cholesky factor for transformation
  Using 1-stage real ELPA solver
  Determining occupation numbers for Kohn-Sham eigenstates.
  | Chemical potential (Fermi level) in eV                 : -.25802965E+02
  | Error in electron count due to remaining E_F inaccuracy: 0.00000000E+00
  | Maximum occupation number of highest empty state:  0.00E+00

  Current spin moment of the entire structure :
  | N = N_up - N_down :    0.00
  | S                 :    0.00
  | J                 :    1.00

  Highest occupied state (VBM) at    -27.93617638 eV
  | Occupation number:      1.00000000
  | Spin channel:        2

  Lowest unoccupied state (CBM) at    -5.41339772 eV
  | Occupation number:      0.00000000
  | Spin channel:        1

  Overall HOMO-LUMO gap:     22.52277866 eV.

  Total energy components:
  | Sum of eigenvalues            :          -2.09286206 Ha         -56.94967417 eV
  | XC energy correction          :          -0.86467965 Ha         -23.52913045 eV
  | XC potential correction       :           1.11218699 Ha          30.26414779 eV
  | Free-atom electrostatic energy:          -0.28197566 Ha          -7.67294798 eV
  | Hartree energy correction     :          -0.11445391 Ha          -3.11444946 eV
  | van der Waals energy corr.    :           0.00000000 Ha           0.00000000 eV
  | Entropy correction            :           0.00000000 Ha           0.00000000 eV
  | ---------------------------
  | Total energy                  :          -2.24178429 Ha         -61.00205428 eV
  | Total energy, T -> 0          :          -2.24178429 Ha         -61.00205428 eV  <-- do not rely on this value for anything but (periodic) metals
  | Electronic free energy        :          -2.24178429 Ha         -61.00205428 eV

  Derived energy quantities:
  | Kinetic energy                :          -3.41281691 Ha         -92.86747325 eV
  | Electrostatic energy          :           2.03571227 Ha          55.39454942 eV
  | Energy correction for multipole
  | error in Hartree potential    :           0.00221577 Ha           0.06029424 eV
  | Sum of eigenvalues per atom                           :         -28.47483709 eV
  | Total energy (T->0) per atom                          :         -30.50102714 eV  <-- do not rely on this value for anything but (periodic) metals
  | Electronic free energy per atom                       :         -30.50102714 eV

  Self-consistency convergence accuracy:
  | Change of charge/spin density : 0.6763E+00 0.2354E+00
  | Change of sum of eigenvalues  : -.2148E+02 eV
  | Change of total energy        : -.2629E+02 eV

  End self-consistency iteration #     8       :  max(cpu_time)    wall_clock(cpu1)
  | Time for this iteration                    :        0.027 s           0.026 s
  | Charge density update                      :        0.007 s           0.006 s
  | Density mixing                             :        0.002 s           0.002 s
  | Hartree multipole update                   :        0.001 s           0.001 s
  | Hartree multipole summation                :        0.005 s           0.005 s
  | Integration                                :        0.010 s           0.010 s
  | Solution of K.-S. eqns.                    :        0.001 s           0.001 s
  | Total energy evaluation                    :        0.000 s           0.001 s
------------------------------------------------------------

------------------------------------------------------------
          Begin self-consistency iteration #    9

  Date     :  20220120, Time     :  153522.310
------------------------------------------------------------
  Evaluating new KS density.
  Integration grid: deviation in total charge (<rho> - N_e) =   1.144995E-08
  | <rho_up-rho_dn> = N_up-N_dn =     -0.0870; <|rho_up-rho_dn|> =      1.3332
  Pulay mixing of updated and previous charge densities.

  Evaluating partitioned Hartree potential by multipole expansion.
  | Analytical far-field extrapolation by fixed multipoles:
  | Hartree multipole sum: apparent total charge =  -0.129289E-04
  Summing up the Hartree potential.
  Time summed over all CPUs for potential: real work        0.033 s, elapsed        0.034 s
  | RMS charge density error from multipole expansion :   0.100354E-01

  Integrating Hamiltonian matrix: batch-based integration.
  Time summed over all CPUs for integration: real work        0.075 s, elapsed        0.081 s

  Updating Kohn-Sham eigenvalues, eigenvectors, occupation numbers, and Fermi level.
  Solving generalized eigenproblem
  Solving real symmetric generalised eigenvalue problem by standard ScaLAPACK.
  Using Cholesky factor for transformation
  Using 1-stage real ELPA solver
  Solving real symmetric generalised eigenvalue problem by standard ScaLAPACK.
  Using Cholesky factor for transformation
  Using 1-stage real ELPA solver
  Determining occupation numbers for Kohn-Sham eigenstates.
  | Chemical potential (Fermi level) in eV                 : -.27238825E+02
  | Error in electron count due to remaining E_F inaccuracy: 0.00000000E+00
  | Maximum occupation number of highest empty state:  0.00E+00

  Current spin moment of the entire structure :
  | N = N_up - N_down :    0.00
  | S                 :    0.00
  | J                 :    1.00

  Highest occupied state (VBM) at    -29.51749318 eV
  | Occupation number:      1.00000000
  | Spin channel:        2

  Lowest unoccupied state (CBM) at    -5.98558353 eV
  | Occupation number:      0.00000000
  | Spin channel:        1

  Overall HOMO-LUMO gap:     23.53190965 eV.

  Total energy components:
  | Sum of eigenvalues            :          -2.20703200 Ha         -60.05639636 eV
  | XC energy correction          :          -0.90094250 Ha         -24.51589271 eV
  | XC potential correction       :           1.15897413 Ha          31.53729068 eV
  | Free-atom electrostatic energy:          -0.28197566 Ha          -7.67294798 eV
  | Hartree energy correction     :          -0.19198052 Ha          -5.22405572 eV
  | van der Waals energy corr.    :           0.00000000 Ha           0.00000000 eV
  | Entropy correction            :           0.00000000 Ha           0.00000000 eV
  | ---------------------------
  | Total energy                  :          -2.42295654 Ha         -65.93200209 eV
  | Total energy, T -> 0          :          -2.42295654 Ha         -65.93200209 eV  <-- do not rely on this value for anything but (periodic) metals
  | Electronic free energy        :          -2.42295654 Ha         -65.93200209 eV

  Derived energy quantities:
  | Kinetic energy                :          -3.85956832 Ha        -105.02419767 eV
  | Electrostatic energy          :           2.33755428 Ha          63.60808829 eV
  | Energy correction for multipole
  | error in Hartree potential    :           0.00233812 Ha           0.06362359 eV
  | Sum of eigenvalues per atom                           :         -30.02819818 eV
  | Total energy (T->0) per atom                          :         -32.96600104 eV  <-- do not rely on this value for anything but (periodic) metals
  | Electronic free energy per atom                       :         -32.96600104 eV

  Self-consistency convergence accuracy:
  | Change of charge/spin density : 0.1328E+01 0.4353E+00
  | Change of sum of eigenvalues  : -.3107E+01 eV
  | Change of total energy        : -.4930E+01 eV

  End self-consistency iteration #     9       :  max(cpu_time)    wall_clock(cpu1)
  | Time for this iteration                    :        0.028 s           0.027 s
  | Charge density update                      :        0.006 s           0.006 s
  | Density mixing                             :        0.002 s           0.002 s
  | Hartree multipole update                   :        0.001 s           0.001 s
  | Hartree multipole summation                :        0.005 s           0.005 s
  | Integration                                :        0.010 s           0.010 s
  | Solution of K.-S. eqns.                    :        0.002 s           0.002 s
  | Total energy evaluation                    :        0.000 s           0.001 s
------------------------------------------------------------

------------------------------------------------------------
          Begin self-consistency iteration #   10

  Date     :  20220120, Time     :  153522.340
------------------------------------------------------------
  Evaluating new KS density.
  Integration grid: deviation in total charge (<rho> - N_e) =   9.920862E-09
  | <rho_up-rho_dn> = N_up-N_dn =     -0.0559; <|rho_up-rho_dn|> =      1.4274
  Pulay mixing of updated and previous charge densities.

  Evaluating partitioned Hartree potential by multipole expansion.
  | Analytical far-field extrapolation by fixed multipoles:
  | Hartree multipole sum: apparent total charge =  -0.168850E-04
  Summing up the Hartree potential.
  Time summed over all CPUs for potential: real work        0.038 s, elapsed        0.043 s
  | RMS charge density error from multipole expansion :   0.141323E-01

  Integrating Hamiltonian matrix: batch-based integration.
  Time summed over all CPUs for integration: real work        0.072 s, elapsed        0.077 s

  Updating Kohn-Sham eigenvalues, eigenvectors, occupation numbers, and Fermi level.
  Solving generalized eigenproblem
  Solving real symmetric generalised eigenvalue problem by standard ScaLAPACK.
  Using Cholesky factor for transformation
  Using 1-stage real ELPA solver
  Solving real symmetric generalised eigenvalue problem by standard ScaLAPACK.
  Using Cholesky factor for transformation
  Using 1-stage real ELPA solver
  Determining occupation numbers for Kohn-Sham eigenstates.
  | Chemical potential (Fermi level) in eV                 : -.38344036E+02
  | Error in electron count due to remaining E_F inaccuracy: 0.00000000E+00
  | Maximum occupation number of highest empty state:  0.00E+00

  Current spin moment of the entire structure :
  | N = N_up - N_down :    0.00
  | S                 :    0.00
  | J                 :    1.00

  Highest occupied state (VBM) at    -41.63681713 eV
  | Occupation number:      1.00000000
  | Spin channel:        2

  Lowest unoccupied state (CBM) at   -10.95476319 eV
  | Occupation number:      0.00000000
  | Spin channel:        1

  Overall HOMO-LUMO gap:     30.68205393 eV.

  Total energy components:
  | Sum of eigenvalues            :          -3.08978199 Ha         -84.07724568 eV
  | XC energy correction          :          -1.12380708 Ha         -30.58034644 eV
  | XC potential correction       :           1.44753857 Ha          39.38952870 eV
  | Free-atom electrostatic energy:          -0.28197566 Ha          -7.67294798 eV
  | Hartree energy correction     :          -0.90043133 Ha         -24.50198310 eV
  | van der Waals energy corr.    :           0.00000000 Ha           0.00000000 eV
  | Entropy correction            :           0.00000000 Ha           0.00000000 eV
  | ---------------------------
  | Total energy                  :          -3.94845747 Ha        -107.44299450 eV
  | Total energy, T -> 0          :          -3.94845747 Ha        -107.44299450 eV  <-- do not rely on this value for anything but (periodic) metals
  | Electronic free energy        :          -3.94845747 Ha        -107.44299450 eV

  Derived energy quantities:
  | Kinetic energy                :          -7.40855828 Ha        -201.59712800 eV
  | Electrostatic energy          :           4.58390788 Ha         124.73447994 eV
  | Energy correction for multipole
  | error in Hartree potential    :           0.00334084 Ha           0.09090898 eV
  | Sum of eigenvalues per atom                           :         -42.03862284 eV
  | Total energy (T->0) per atom                          :         -53.72149725 eV  <-- do not rely on this value for anything but (periodic) metals
  | Electronic free energy per atom                       :         -53.72149725 eV

  Self-consistency convergence accuracy:
  | Change of charge/spin density : 0.1416E+01 0.4766E+00
  | Change of sum of eigenvalues  : -.2402E+02 eV
  | Change of total energy        : -.4151E+02 eV

  End self-consistency iteration #    10       :  max(cpu_time)    wall_clock(cpu1)
  | Time for this iteration                    :        0.030 s           0.029 s
  | Charge density update                      :        0.008 s           0.007 s
  | Density mixing                             :        0.002 s           0.002 s
  | Hartree multipole update                   :        0.001 s           0.002 s
  | Hartree multipole summation                :        0.006 s           0.006 s
  | Integration                                :        0.010 s           0.010 s
  | Solution of K.-S. eqns.                    :        0.002 s           0.001 s
  | Total energy evaluation                    :        0.000 s           0.000 s
------------------------------------------------------------

------------------------------------------------------------
          Begin self-consistency iteration #   11

  Date     :  20220120, Time     :  153522.371
------------------------------------------------------------
  Evaluating new KS density.
  Integration grid: deviation in total charge (<rho> - N_e) =   2.978370E-09
  | <rho_up-rho_dn> = N_up-N_dn =      0.0300; <|rho_up-rho_dn|> =      1.9958
  Pulay mixing of updated and previous charge densities.

  Evaluating partitioned Hartree potential by multipole expansion.
  | Analytical far-field extrapolation by fixed multipoles:
  | Hartree multipole sum: apparent total charge =  -0.164089E-04
  Summing up the Hartree potential.
  Time summed over all CPUs for potential: real work        0.034 s, elapsed        0.036 s
  | RMS charge density error from multipole expansion :   0.134405E-01

  Integrating Hamiltonian matrix: batch-based integration.
  Time summed over all CPUs for integration: real work        0.074 s, elapsed        0.080 s

  Updating Kohn-Sham eigenvalues, eigenvectors, occupation numbers, and Fermi level.
  Solving generalized eigenproblem
  Solving real symmetric generalised eigenvalue problem by standard ScaLAPACK.
  Using Cholesky factor for transformation
  Using 1-stage real ELPA solver
  Solving real symmetric generalised eigenvalue problem by standard ScaLAPACK.
  Using Cholesky factor for transformation
  Using 1-stage real ELPA solver
  Determining occupation numbers for Kohn-Sham eigenstates.
  | Chemical potential (Fermi level) in eV                 : -.36480773E+02
  | Error in electron count due to remaining E_F inaccuracy: 0.00000000E+00
  | Maximum occupation number of highest empty state:  0.00E+00

  Current spin moment of the entire structure :
  | N = N_up - N_down :    0.00
  | S                 :    0.00
  | J                 :    1.00

  Highest occupied state (VBM) at    -39.60622394 eV
  | Occupation number:      1.00000000
  | Spin channel:        2

  Lowest unoccupied state (CBM) at   -10.04011000 eV
  | Occupation number:      0.00000000
  | Spin channel:        1

  Overall HOMO-LUMO gap:     29.56611394 eV.

  Total energy components:
  | Sum of eigenvalues            :          -2.94250991 Ha         -80.06976846 eV
  | XC energy correction          :          -1.09776023 Ha         -29.87157559 eV
  | XC potential correction       :           1.41346128 Ha          38.46223840 eV
  | Free-atom electrostatic energy:          -0.28197566 Ha          -7.67294798 eV
  | Hartree energy correction     :          -0.78104525 Ha         -21.25332250 eV
  | van der Waals energy corr.    :           0.00000000 Ha           0.00000000 eV
  | Entropy correction            :           0.00000000 Ha           0.00000000 eV
  | ---------------------------
  | Total energy                  :          -3.68982975 Ha        -100.40537612 eV
  | Total energy, T -> 0          :          -3.68982975 Ha        -100.40537612 eV  <-- do not rely on this value for anything but (periodic) metals
  | Electronic free energy        :          -3.68982975 Ha        -100.40537612 eV

  Derived energy quantities:
  | Kinetic energy                :          -6.81741190 Ha        -185.51121654 eV
  | Electrostatic energy          :           4.22534238 Ha         114.97741602 eV
  | Energy correction for multipole
  | error in Hartree potential    :           0.00315191 Ha           0.08576787 eV
  | Sum of eigenvalues per atom                           :         -40.03488423 eV
  | Total energy (T->0) per atom                          :         -50.20268806 eV  <-- do not rely on this value for anything but (periodic) metals
  | Electronic free energy per atom                       :         -50.20268806 eV

[...]
  | Change of sum of eigenvalues  : 0.1196E-03 eV
  | Change of total energy        : 0.7180E-09 eV

  End self-consistency iteration #    25       :  max(cpu_time)    wall_clock(cpu1)
  | Time for this iteration                    :        0.026 s           0.026 s
  | Charge density update                      :        0.006 s           0.006 s
  | Density mixing                             :        0.002 s           0.002 s
  | Hartree multipole update                   :        0.001 s           0.001 s
  | Hartree multipole summation                :        0.005 s           0.005 s
  | Integration                                :        0.010 s           0.010 s
  | Solution of K.-S. eqns.                    :        0.001 s           0.001 s
  | Total energy evaluation                    :        0.000 s           0.001 s
------------------------------------------------------------

------------------------------------------------------------
          Begin self-consistency iteration #   26

  Date     :  20220120, Time     :  153522.819
------------------------------------------------------------
  Evaluating new KS density.
  Integration grid: deviation in total charge (<rho> - N_e) =   1.992628E-12
  | <rho_up-rho_dn> = N_up-N_dn =      0.0000; <|rho_up-rho_dn|> =      0.0000
  Pulay mixing of updated and previous charge densities.

  Evaluating partitioned Hartree potential by multipole expansion.
  | Analytical far-field extrapolation by fixed multipoles:
  | Hartree multipole sum: apparent total charge =   0.839933E-06
  Summing up the Hartree potential.
  Time summed over all CPUs for potential: real work        0.033 s, elapsed        0.034 s
  | RMS charge density error from multipole expansion :   0.139198E-02

  Integrating Hamiltonian matrix: batch-based integration.
  Time summed over all CPUs for integration: real work        0.076 s, elapsed        0.081 s

  Updating Kohn-Sham eigenvalues, eigenvectors, occupation numbers, and Fermi level.
  Solving generalized eigenproblem
  Solving real symmetric generalised eigenvalue problem by standard ScaLAPACK.
  Using Cholesky factor for transformation
  Using 1-stage real ELPA solver
  Solving real symmetric generalised eigenvalue problem by standard ScaLAPACK.
  Using Cholesky factor for transformation
  Using 1-stage real ELPA solver
  Determining occupation numbers for Kohn-Sham eigenstates.
  | Chemical potential (Fermi level) in eV                 : -.90566204E+01
  | Error in electron count due to remaining E_F inaccuracy: 0.00000000E+00
  | Maximum occupation number of highest empty state:  0.00E+00

  Current spin moment of the entire structure :
  | N = N_up - N_down :    0.00
  | S                 :    0.00
  | J                 :    1.00

  Highest occupied state (VBM) at    -10.74376576 eV
  | Occupation number:      1.00000000
  | Spin channel:        2

  Lowest unoccupied state (CBM) at     0.79666231 eV
  | Occupation number:      0.00000000
  | Spin channel:        1

  Overall HOMO-LUMO gap:     11.54042807 eV.

  Total energy components:
  | Sum of eigenvalues            :          -0.78965228 Ha         -21.48753189 eV
  | XC energy correction          :          -0.71472425 Ha         -19.44863641 eV
  | XC potential correction       :           0.91747255 Ha          24.96569822 eV
  | Free-atom electrostatic energy:          -0.28197566 Ha          -7.67294798 eV
  | Hartree energy correction     :          -0.29300733 Ha          -7.97313500 eV
  | van der Waals energy corr.    :           0.00000000 Ha           0.00000000 eV
  | Entropy correction            :           0.00000000 Ha           0.00000000 eV
  | ---------------------------
  | Total energy                  :          -1.16188697 Ha         -31.61655307 eV
  | Total energy, T -> 0          :          -1.16188697 Ha         -31.61655307 eV  <-- do not rely on this value for anything but (periodic) metals
  | Electronic free energy        :          -1.16188697 Ha         -31.61655307 eV

  Derived energy quantities:
  | Kinetic energy                :           1.21499596 Ha          33.06172235 eV
  | Electrostatic energy          :          -1.66215868 Ha         -45.22963901 eV
  | Energy correction for multipole
  | error in Hartree potential    :          -0.00007925 Ha          -0.00215652 eV
  | Sum of eigenvalues per atom                           :         -10.74376595 eV
  | Total energy (T->0) per atom                          :         -15.80827654 eV  <-- do not rely on this value for anything but (periodic) metals
  | Electronic free energy per atom                       :         -15.80827654 eV

  Self-consistency convergence accuracy:
  | Change of charge/spin density : 0.5732E-06 0.5557E-06
  | Change of sum of eigenvalues  : 0.2342E-04 eV
  | Change of total energy        : 0.1228E-09 eV

  End self-consistency iteration #    26       :  max(cpu_time)    wall_clock(cpu1)
  | Time for this iteration                    :        0.027 s           0.026 s
  | Charge density update                      :        0.006 s           0.005 s
  | Density mixing                             :        0.002 s           0.002 s
  | Hartree multipole update                   :        0.001 s           0.001 s
  | Hartree multipole summation                :        0.004 s           0.005 s
  | Integration                                :        0.010 s           0.010 s
  | Solution of K.-S. eqns.                    :        0.002 s           0.002 s
  | Total energy evaluation                    :        0.000 s           0.000 s
------------------------------------------------------------

------------------------------------------------------------
          Begin self-consistency iteration #   27

  Date     :  20220120, Time     :  153522.850
------------------------------------------------------------
  Evaluating new KS density.
  Integration grid: deviation in total charge (<rho> - N_e) =   3.774758E-13
  | <rho_up-rho_dn> = N_up-N_dn =     -0.0000; <|rho_up-rho_dn|> =      0.0000
  Pulay mixing of updated and previous charge densities.

  Evaluating partitioned Hartree potential by multipole expansion.
  | Analytical far-field extrapolation by fixed multipoles:
  | Hartree multipole sum: apparent total charge =   0.839952E-06
  Summing up the Hartree potential.
  Time summed over all CPUs for potential: real work        0.036 s, elapsed        0.042 s
  | RMS charge density error from multipole expansion :   0.139198E-02

  Integrating Hamiltonian matrix: batch-based integration.
  Time summed over all CPUs for integration: real work        0.088 s, elapsed        0.098 s

  Updating Kohn-Sham eigenvalues, eigenvectors, occupation numbers, and Fermi level.
  Solving generalized eigenproblem
  Solving real symmetric generalised eigenvalue problem by standard ScaLAPACK.
  Using Cholesky factor for transformation
  Using 1-stage real ELPA solver
  Solving real symmetric generalised eigenvalue problem by standard ScaLAPACK.
  Using Cholesky factor for transformation
  Using 1-stage real ELPA solver
  Determining occupation numbers for Kohn-Sham eigenstates.
  | Chemical potential (Fermi level) in eV                 : -.90567346E+01
  | Error in electron count due to remaining E_F inaccuracy: 0.00000000E+00
  | Maximum occupation number of highest empty state:  0.00E+00

  Current spin moment of the entire structure :
  | N = N_up - N_down :    0.00
  | S                 :    0.00
  | J                 :    1.00

  Highest occupied state (VBM) at    -10.74376344 eV
  | Occupation number:      1.00000000
  | Spin channel:        2

  Lowest unoccupied state (CBM) at     0.79667474 eV
  | Occupation number:      0.00000000
  | Spin channel:        1

  Overall HOMO-LUMO gap:     11.54043818 eV.

  Total energy components:
  | Sum of eigenvalues            :          -0.78965211 Ha         -21.48752716 eV
  | XC energy correction          :          -0.71472431 Ha         -19.44863810 eV
  | XC potential correction       :           0.91747263 Ha          24.96570047 eV
  | Free-atom electrostatic energy:          -0.28197566 Ha          -7.67294798 eV
  | Hartree energy correction     :          -0.29300752 Ha          -7.97314030 eV
  | van der Waals energy corr.    :           0.00000000 Ha           0.00000000 eV
  | Entropy correction            :           0.00000000 Ha           0.00000000 eV
  | ---------------------------
  | Total energy                  :          -1.16188697 Ha         -31.61655307 eV
  | Total energy, T -> 0          :          -1.16188697 Ha         -31.61655307 eV  <-- do not rely on this value for anything but (periodic) metals
  | Electronic free energy        :          -1.16188697 Ha         -31.61655307 eV

  Derived energy quantities:
  | Kinetic energy                :           1.21499598 Ha          33.06172278 eV
  | Electrostatic energy          :          -1.66215864 Ha         -45.22963776 eV
  | Energy correction for multipole
  | error in Hartree potential    :          -0.00007925 Ha          -0.00215651 eV
  | Sum of eigenvalues per atom                           :         -10.74376358 eV
  | Total energy (T->0) per atom                          :         -15.80827654 eV  <-- do not rely on this value for anything but (periodic) metals
  | Electronic free energy per atom                       :         -15.80827654 eV

  Self-consistency convergence accuracy:
  | Change of charge/spin density : 0.1300E-06 0.7087E-07
  | Change of sum of eigenvalues  : 0.4731E-05 eV
  | Change of total energy        : 0.2878E-10 eV

  Writing Kohn-Sham eigenvalues.

  Spin-up eigenvalues:

  State    Occupation    Eigenvalue [Ha]    Eigenvalue [eV]
      1       1.00000          -0.394826          -10.74376
      2       0.00000           0.029277            0.79667
      3       0.00000           0.045978            1.25112
      4       0.00000           0.178459            4.85611
      5       0.00000           0.323859            8.81266
      6       0.00000           0.323859            8.81266
      7       0.00000           0.361971            9.84975
      8       0.00000           0.592666           16.12727
      9       0.00000           0.780580           21.24066
     10       0.00000           0.782968           21.30565
     11       0.00000           0.782968           21.30565

  Spin-down eigenvalues:

  State    Occupation    Eigenvalue [Ha]    Eigenvalue [eV]
      1       1.00000          -0.394826          -10.74376
      2       0.00000           0.029277            0.79668
      3       0.00000           0.045978            1.25112
      4       0.00000           0.178459            4.85611
      5       0.00000           0.323859            8.81266
      6       0.00000           0.323859            8.81266
      7       0.00000           0.361972            9.84975
      8       0.00000           0.592666           16.12727
      9       0.00000           0.780580           21.24066
     10       0.00000           0.782968           21.30566
     11       0.00000           0.782968           21.30566

  Current spin moment of the entire structure :
  | N = N_up - N_down :    0.00
  | S                 :    0.00
  | J                 :    1.00

  Highest occupied state (VBM) at    -10.74376344 eV
  | Occupation number:      1.00000000
  | Spin channel:        2

  Lowest unoccupied state (CBM) at     0.79667474 eV
  | Occupation number:      0.00000000
  | Spin channel:        1

  Overall HOMO-LUMO gap:     11.54043818 eV.

  Self-consistency cycle converged.

  End self-consistency iteration #    27       :  max(cpu_time)    wall_clock(cpu1)
  | Time for this iteration                    :        0.031 s           0.032 s
  | Charge density update                      :        0.006 s           0.006 s
  | Density mixing                             :        0.002 s           0.002 s
  | Hartree multipole update                   :        0.001 s           0.001 s
  | Hartree multipole summation                :        0.006 s           0.006 s
  | Integration                                :        0.012 s           0.012 s
  | Solution of K.-S. eqns.                    :        0.001 s           0.002 s
  | Total energy evaluation                    :        0.000 s           0.001 s
------------------------------------------------------------
  Obtaining max. number of non-zero basis functions in each batch .
  Evaluating KS electron density on previously omitted grid points.
  Evaluating non-empirical van der Waals correction (Tkatchenko/Scheffler 2009).
  Performing Hirshfeld analysis of fragment charges and moments.
  ----------------------------------------------------------------------
  | Atom     1: H
  |   Hirshfeld charge        :     -0.00000040
  |   Free atom volume        :     10.31539447
  |   Hirshfeld volume        :      4.95541891
  |   Hirshfeld spin moment   :      0.00000010
  |   Hirshfeld dipole vector :     -0.00000000       0.00000000      -0.07676477
  |   Hirshfeld dipole moment :      0.07676477
  |   Hirshfeld second moments:      0.13099218       0.00000000      -0.00000000
  |                                  0.00000000       0.13099218       0.00000000
  |                                 -0.00000000       0.00000000       0.12934969
  ----------------------------------------------------------------------
  | Atom     2: H
  |   Hirshfeld charge        :     -0.00000040
  |   Free atom volume        :     10.31539447
  |   Hirshfeld volume        :      4.95541891
  |   Hirshfeld spin moment   :      0.00000010
  |   Hirshfeld dipole vector :     -0.00000000       0.00000000       0.07676477
  |   Hirshfeld dipole moment :      0.07676477
  |   Hirshfeld second moments:      0.13099218       0.00000000      -0.00000000
  |                                  0.00000000       0.13099218       0.00000000
  |                                 -0.00000000       0.00000000       0.12934969
  ----------------------------------------------------------------------


  Total energy components:
  | Sum of eigenvalues            :          -0.78965211 Ha         -21.48752716 eV
  | XC energy correction          :          -0.71472431 Ha         -19.44863810 eV
  | XC potential correction       :           0.91747263 Ha          24.96570047 eV
  | Free-atom electrostatic energy:          -0.28197566 Ha          -7.67294798 eV
  | Hartree energy correction     :          -0.29300752 Ha          -7.97314030 eV
  | van der Waals energy corr.    :          -0.00000019 Ha          -0.00000524 eV
  | Entropy correction            :           0.00000000 Ha           0.00000000 eV
  | ---------------------------
  | Total energy                  :          -1.16188716 Ha         -31.61655831 eV
  | Total energy, T -> 0          :          -1.16188716 Ha         -31.61655831 eV  <-- do not rely on this value for anything but (periodic) metals
  | Electronic free energy        :          -1.16188716 Ha         -31.61655831 eV

  Derived energy quantities:
  | Kinetic energy                :           1.21499598 Ha          33.06172278 eV
  | Electrostatic energy          :          -1.66215864 Ha         -45.22963776 eV
  | Energy correction for multipole
  | error in Hartree potential    :          -0.00007925 Ha          -0.00215651 eV
  | Sum of eigenvalues per atom                           :         -10.74376358 eV
  | Total energy (T->0) per atom                          :         -15.80827916 eV  <-- do not rely on this value for anything but (periodic) metals
  | Electronic free energy per atom                       :         -15.80827916 eV
  Timings for VdW correction (Tkatchenko-Scheffler 2009 or later):
  | CPU time:        0.004 s, Wall clock time:        0.004 s.

  Energy and forces in a compact form:
  | Total energy uncorrected      :         -0.316165583137620E+02 eV
  | Total energy corrected        :         -0.316165583137620E+02 eV  <-- do not rely on this value for anything but (periodic) metals
  | Electronic free energy        :         -0.316165583137620E+02 eV

  ------------------------------------ 
  Start decomposition of the XC Energy 
  ------------------------------------ 
  Hartree-Fock part   :          0.000000000 Ha              0.000000000 eV
  ------------------------------------ 
  X Energy            :         -0.671479937 Ha            -18.271898760 eV
  C Energy GGA        :         -0.043244376 Ha             -1.176739336 eV
  Total XC Energy     :         -0.714724313 Ha            -19.448638096 eV
  LDA X and C from self-consistent density 
  X Energy LDA        :         -0.587528051 Ha            -15.987451689 eV
  C Energy LDA        :         -0.095903758 Ha             -2.609674029 eV
  ------------------------------------ 
  End decomposition of the XC Energy 
  ------------------------------------ 

------------------------------------------------------------------------------
  Final output of selected total energy values:

  The following output summarizes some interesting total energy values
  at the end of a run (AFTER all relaxation, molecular dynamics, etc.).

  | Total energy of the DFT / Hartree-Fock s.c.f. calculation      :            -31.616558314 eV
  | Final zero-broadening corrected energy (caution - metals only) :            -31.616558314 eV
  | For reference only, the value of 1 Hartree used in FHI-aims is :             27.211384500 eV

  Before relying on these values, please be sure to understand exactly which
  total energy value is referred to by a given number. Different objects may
  all carry the same name 'total energy'. Definitions:

  Total energy of the DFT / Hartree-Fock s.c.f. calculation:
  | Note that this energy does not include ANY quantities calculated after the
  | s.c.f. cycle, in particular not ANY RPA, MP2, etc. many-body perturbation terms.

  Final zero-broadening corrected energy:
  | For metallic systems only, a broadening of the occupation numbers at the Fermi
  | level can be extrapolated back to zero broadening by an electron-gas inspired
  | formula. For all systems that are not real metals, this value can be
  | meaningless and should be avoided.

------------------------------------------------------------------------------

------------------------------------------------------------
          Leaving FHI-aims.
          Date     :  20220120, Time     :  153522.895

          Computational steps:
          | Number of self-consistency cycles          :           27

          Detailed time accounting                     :  max(cpu_time)    wall_clock(cpu1)
          | Total time                                 :        0.943 s           1.049 s
          | Preparation time                           :        0.082 s           0.083 s
          | Grid partitioning                          :        0.007 s           0.007 s
          | Preloading free-atom quantities on grid    :        0.004 s           0.004 s
          | Free-atom superposition energy             :        0.003 s           0.003 s
          | Total time for integrations                :        0.288 s           0.290 s
          | Total time for solution of K.-S. equations :        0.049 s           0.052 s
          | Total time for density update              :        0.189 s           0.164 s
          | Total time for mixing                      :        0.049 s           0.047 s
          | Total time for Hartree multipole update    :        0.037 s           0.043 s
          | Total time for Hartree multipole sum       :        0.130 s           0.131 s
          | Total time for total energy evaluation     :        0.005 s           0.012 s
          | Total time for scaled ZORA corrections     :        0.000 s           0.000 s
          | Total time for vdW correction              :        0.004 s           0.004 s

          Have a nice day.
------------------------------------------------------------
